<?xml version="1.0" encoding="UTF-8"?>

<!-- generated on 2025-01-29 12:20:57 by Eclipse SUMO sumo Version 1.21.0
<sumoConfiguration xmlns:xsi="http://www.w3.org/2001/XMLSchema-instance" xsi:noNamespaceSchemaLocation="http://sumo.dlr.de/xsd/sumoConfiguration.xsd">

    <input>
        <net-file value="C:\Users\seung\Documents\GIT\BO_UrbanMobility_Benchmark\network\network1_SF\net.xml"/>
        <route-files value="C:/Users/seung/Documents/GIT/BO_UrbanMobility_Benchmark/output/network1_SF_bo_vanilla/initial_search/sobol_16_trips.xml"/>
        <additional-files value="C:\Users\seung\Documents\GIT\BO_UrbanMobility_Benchmark\network\network1_SF\additional.xml"/>
    </input>

    <output>
        <output-prefix value="output/network1_SF_bo_vanilla/initial_search/sobol_16_"/>
        <vehroute-output value="routes.vehroutes.xml"/>
    </output>

    <time>
        <begin value="0"/>
        <end value="57600"/>
    </time>

    <processing>
        <ignore-route-errors value="true"/>
    </processing>

    <report>
        <verbose value="true"/>
        <xml-validation value="never"/>
        <no-warnings value="true"/>
        <duration-log.statistics value="true"/>
    </report>

    <mesoscopic>
        <mesosim value="true"/>
    </mesoscopic>

    <random_number>
        <seed value="0"/>
    </random_number>

</sumoConfiguration>
-->

<routes xmlns:xsi="http://www.w3.org/2001/XMLSchema-instance" xsi:noNamespaceSchemaLocation="http://sumo.dlr.de/xsd/routes_file.xsd">
    <vehicle id="1067" type="DEFAULT_VEHTYPE" depart="1.00" departLane="free" departSpeed="32.4397" fromTaz="T1_880_1" toTaz="T1_280_1" speedFactor="1.1163" arrival="760.00">
        <route edges="861090333 617259163 863754537 158710528 850873947 156651855 880544469 393495986 966218541 156651844 183343395 51350996 417910449 362158898 552152110 124952143 26297396 23011287 550271864 125343939 1343746547 123592887#0 123592887#1 554260214 550284606 550284605 8958375 206086131 1050201637 60759799 550284603 60759806 8958828 91887985 91887714 91887715 26027241 479773100 26027240 60759293 60759290 550284602 123592924#0 123592924#1 708615404 708615405 5011982 550284589 1343727391 123592890 5018720 550284591 550284590 5018717 5011984 550284595 550284594 5018648 5018679 5018680 5018678 5018675 617284127 705770570 5018649 705770569 550284588 4927662 550284586 26231703 30858344 30858343 30858341 91859494 91859520 22372547 848751592 848751591 848748039 848748038 26230997 26230999#0 26230999#1 942119440 867316120 967501778 967501777 967501776 184867255 13108160 967501780 967501779 967501781 617235607 20894099 517836093 416943095#0 416943095#1 343498596 25355829 530490479#0"/>
    </vehicle>

    <vehicle id="694" type="DEFAULT_VEHTYPE" depart="10.00" departLane="free" departSpeed="24.0701" fromTaz="T1_880_1" toTaz="T1_17_1" speedFactor="1.1814" arrival="784.00">
        <route edges="861090333 617259163 863754537 158710528 850873947 850873948 124952161 968157980 617259141 123867446#0 123867446#1 711834657 157782133 552603210 301865762 301865760 301865758 28464122 28464124 851553865 969771216 851553864 28414195 28414192 961214969 961214966 28414138 961214965 28414139 508479336 30832610 961214967 172193150 408536268 394139590 508479329 517853507 30832603 30832604 508479332#0 508479332#1 157607609 395442655 157607611 1343731831 395439805 363648765 363648766 946464492 946464493 395439800 28435481 395439801 28435482 157593042 366053218 395439803 366053224 686995600 686995599 510072359 363634374 363634375 544299023 395437192 961388358 28435496 961388360 961388361 28435495 28435548 28435549 544984000 28435572 961388371 28435573 119271357 25657135#0 25657135#1 8966869 25657097 25657098 965564172 261596707 395336999 965564173 395336990 395336979 395336984 33104342 26174374 28432481 28432567 965853345 28432568 965853344 395336991 6240692 28665771 28665770 921643570 965853361 921643571 965853376 119271337 28317586 966059356 947811854 60723578 940408568 966059357 966059358"/>
    </vehicle>

    <vehicle id="687" type="DEFAULT_VEHTYPE" depart="1.00" departLane="free" departSpeed="27.9244" fromTaz="T1_880_1" toTaz="T1_17_1" speedFactor="1.0153" arrival="811.00">
        <route edges="861090333 617259163 863754537 158710528 850873947 850873948 124952161 968157980 617259141 123867446#0 123867446#1 711834657 157782133 552603210 301865762 301865760 301865758 28464122 28464124 851553865 969771216 851553864 28414195 28414192 961214969 961214966 28414138 961214965 28414139 508479336 30832610 961214967 172193150 408536268 394139590 508479329 517853507 30832603 30832604 508479332#0 508479332#1 157607609 395442655 157607611 1343731831 395439805 363648765 363648766 946464492 946464493 395439800 28435481 395439801 28435482 157593042 366053218 395439803 366053224 686995600 686995599 510072359 363634374 363634375 544299023 395437192 961388358 28435496 961388360 961388361 28435495 28435548 28435549 544984000 28435572 961388371 28435573 119271357 25657135#0 25657135#1 8966869 25657097 25657098 965564172 261596707 395336999 965564173 395336990 395336979 395336984 33104342 26174374 28432481 28432567 965853345 28432568 965853344 395336991 6240692 28665771 28665770 921643570 965853361 921643571 965853376 119271337 28317586 966059356 947811854 60723578 940408568 966059357 966059358"/>
    </vehicle>

    <vehicle id="688" type="DEFAULT_VEHTYPE" depart="2.00" departLane="free" departSpeed="21.0858" fromTaz="T1_880_1" toTaz="T1_17_1" speedFactor="1.0541" arrival="811.00">
        <route edges="861090333 617259163 863754537 158710528 850873947 850873948 124952161 968157980 617259141 123867446#0 123867446#1 711834657 157782133 552603210 301865762 301865760 301865758 28464122 28464124 851553865 969771216 851553864 28414195 28414192 961214969 961214966 28414138 961214965 28414139 508479336 30832610 961214967 172193150 408536268 394139590 508479329 517853507 30832603 30832604 508479332#0 508479332#1 157607609 395442655 157607611 1343731831 395439805 363648765 363648766 946464492 946464493 395439800 28435481 395439801 28435482 157593042 366053218 395439803 366053224 686995600 686995599 510072359 363634374 363634375 544299023 395437192 961388358 28435496 961388360 961388361 28435495 28435548 28435549 544984000 28435572 961388371 28435573 119271357 25657135#0 25657135#1 8966869 25657097 25657098 965564172 261596707 395336999 965564173 395336990 395336979 395336984 33104342 26174374 28432481 28432567 965853345 28432568 965853344 395336991 6240692 28665771 28665770 921643570 965853361 921643571 965853376 119271337 28317586 966059356 947811854 60723578 940408568 966059357 966059358"/>
    </vehicle>

    <vehicle id="697" type="DEFAULT_VEHTYPE" depart="14.00" departLane="free" departSpeed="22.7858" fromTaz="T1_880_1" toTaz="T1_17_1" speedFactor="1.1797" arrival="811.00">
        <route edges="861090333 617259163 863754537 158710528 850873947 850873948 124952161 968157980 617259141 123867446#0 123867446#1 711834657 157782133 552603210 301865762 301865760 301865758 28464122 28464124 851553865 969771216 851553864 28414195 28414192 961214969 961214966 28414138 961214965 28414139 508479336 30832610 961214967 172193150 408536268 394139590 508479329 517853507 30832603 30832604 508479332#0 508479332#1 157607609 395442655 157607611 1343731831 395439805 363648765 363648766 946464492 946464493 395439800 28435481 395439801 28435482 157593042 366053218 395439803 366053224 686995600 686995599 510072359 363634374 363634375 544299023 395437192 961388358 28435496 961388360 961388361 28435495 28435548 28435549 544984000 28435572 961388371 28435573 119271357 25657135#0 25657135#1 8966869 25657097 25657098 965564172 261596707 395336999 965564173 395336990 395336979 395336984 33104342 26174374 28432481 28432567 965853345 28432568 965853344 395336991 6240692 28665771 28665770 921643570 965853361 921643571 965853376 119271337 28317586 966059356 947811854 60723578 940408568 966059357 966059358"/>
    </vehicle>

    <vehicle id="689" type="DEFAULT_VEHTYPE" depart="2.00" departLane="free" departSpeed="17.5311" fromTaz="T1_880_1" toTaz="T1_17_1" speedFactor="1.0410" arrival="814.00">
        <route edges="861090333 617259163 863754537 158710528 850873947 850873948 124952161 968157980 617259141 123867446#0 123867446#1 711834657 157782133 552603210 301865762 301865760 301865758 28464122 28464124 851553865 969771216 851553864 28414195 28414192 961214969 961214966 28414138 961214965 28414139 508479336 30832610 961214967 172193150 408536268 394139590 508479329 517853507 30832603 30832604 508479332#0 508479332#1 157607609 395442655 157607611 1343731831 395439805 363648765 363648766 946464492 946464493 395439800 28435481 395439801 28435482 157593042 366053218 395439803 366053224 686995600 686995599 510072359 363634374 363634375 544299023 395437192 961388358 28435496 961388360 961388361 28435495 28435548 28435549 544984000 28435572 961388371 28435573 119271357 25657135#0 25657135#1 8966869 25657097 25657098 965564172 261596707 395336999 965564173 395336990 395336979 395336984 33104342 26174374 28432481 28432567 965853345 28432568 965853344 395336991 6240692 28665771 28665770 921643570 965853361 921643571 965853376 119271337 28317586 966059356 947811854 60723578 940408568 966059357 966059358"/>
    </vehicle>

    <vehicle id="696" type="DEFAULT_VEHTYPE" depart="12.00" departLane="free" departSpeed="18.9822" fromTaz="T1_880_1" toTaz="T1_17_1" speedFactor="1.2194" arrival="815.00">
        <route edges="861090333 617259163 863754537 158710528 850873947 850873948 124952161 968157980 617259141 123867446#0 123867446#1 711834657 157782133 552603210 301865762 301865760 301865758 28464122 28464124 851553865 969771216 851553864 28414195 28414192 961214969 961214966 28414138 961214965 28414139 508479336 30832610 961214967 172193150 408536268 394139590 508479329 517853507 30832603 30832604 508479332#0 508479332#1 157607609 395442655 157607611 1343731831 395439805 363648765 363648766 946464492 946464493 395439800 28435481 395439801 28435482 157593042 366053218 395439803 366053224 686995600 686995599 510072359 363634374 363634375 544299023 395437192 961388358 28435496 961388360 961388361 28435495 28435548 28435549 544984000 28435572 961388371 28435573 119271357 25657135#0 25657135#1 8966869 25657097 25657098 965564172 261596707 395336999 965564173 395336990 395336979 395336984 33104342 26174374 28432481 28432567 965853345 28432568 965853344 395336991 6240692 28665771 28665770 921643570 965853361 921643571 965853376 119271337 28317586 966059356 947811854 60723578 940408568 966059357 966059358"/>
    </vehicle>

    <vehicle id="699" type="DEFAULT_VEHTYPE" depart="16.00" departLane="free" departSpeed="23.4532" fromTaz="T1_880_1" toTaz="T1_17_1" speedFactor="1.2156" arrival="815.00">
        <route edges="861090333 617259163 863754537 158710528 850873947 850873948 124952161 968157980 617259141 123867446#0 123867446#1 711834657 157782133 552603210 301865762 301865760 301865758 28464122 28464124 851553865 969771216 851553864 28414195 28414192 961214969 961214966 28414138 961214965 28414139 508479336 30832610 961214967 172193150 408536268 394139590 508479329 517853507 30832603 30832604 508479332#0 508479332#1 157607609 395442655 157607611 1343731831 395439805 363648765 363648766 946464492 946464493 395439800 28435481 395439801 28435482 157593042 366053218 395439803 366053224 686995600 686995599 510072359 363634374 363634375 544299023 395437192 961388358 28435496 961388360 961388361 28435495 28435548 28435549 544984000 28435572 961388371 28435573 119271357 25657135#0 25657135#1 8966869 25657097 25657098 965564172 261596707 395336999 965564173 395336990 395336979 395336984 33104342 26174374 28432481 28432567 965853345 28432568 965853344 395336991 6240692 28665771 28665770 921643570 965853361 921643571 965853376 119271337 28317586 966059356 947811854 60723578 940408568 966059357 966059358"/>
    </vehicle>

    <vehicle id="1068" type="DEFAULT_VEHTYPE" depart="1.00" departLane="free" departSpeed="29.9318" fromTaz="T1_880_1" toTaz="T1_280_1" speedFactor="1.0300" arrival="824.00">
        <route edges="861090333 617259163 863754537 158710528 850873947 156651855 880544469 393495986 966218541 156651844 183343395 51350996 417910449 362158898 552152110 124952143 26297396 23011287 550271864 125343939 1343746547 123592887#0 123592887#1 554260214 550284606 550284605 8958375 206086131 1050201637 60759799 550284603 60759806 8958828 91887985 91887714 91887715 26027241 479773100 26027240 60759293 60759290 550284602 123592924#0 123592924#1 708615404 708615405 5011982 550284589 1343727391 123592890 5018720 550284591 550284590 5018717 5011984 550284595 550284594 5018648 5018679 5018680 5018678 5018675 617284127 705770570 5018649 705770569 550284588 4927662 550284586 26231703 30858344 30858343 30858341 91859494 91859520 22372547 848751592 848751591 848748039 848748038 26230997 26230999#0 26230999#1 942119440 867316120 967501778 967501777 967501776 184867255 13108160 967501780 967501779 967501781 617235607 20894099 517836093 416943095#0 416943095#1 343498596 25355829 530490479#0"/>
    </vehicle>

    <vehicle id="1072" type="DEFAULT_VEHTYPE" depart="2.00" departLane="free" departSpeed="20.0685" fromTaz="T1_880_1" toTaz="T1_280_1" speedFactor="1.1255" arrival="825.00">
        <route edges="861090333 617259163 863754537 158710528 850873947 156651855 880544469 393495986 966218541 156651844 183343395 51350996 417910449 362158898 552152110 124952143 26297396 23011287 550271864 125343939 1343746547 123592887#0 123592887#1 554260214 550284606 550284605 8958375 206086131 1050201637 60759799 550284603 60759806 8958828 91887985 91887714 91887715 26027241 479773100 26027240 60759293 60759290 550284602 123592924#0 123592924#1 708615404 708615405 5011982 550284589 1343727391 123592890 5018720 550284591 550284590 5018717 5011984 550284595 550284594 5018648 5018679 5018680 5018678 5018675 617284127 705770570 5018649 705770569 550284588 4927662 550284586 26231703 30858344 30858343 30858341 91859494 91859520 22372547 848751592 848751591 848748039 848748038 26230997 26230999#0 26230999#1 942119440 867316120 967501778 967501777 967501776 184867255 13108160 967501780 967501779 967501781 617235607 20894099 517836093 416943095#0 416943095#1 343498596 25355829 530490479#0"/>
    </vehicle>

    <vehicle id="691" type="DEFAULT_VEHTYPE" depart="5.00" departLane="free" departSpeed="18.8186" fromTaz="T1_880_1" toTaz="T1_17_1" speedFactor="1.0201" arrival="852.00">
        <route edges="861090333 617259163 863754537 158710528 850873947 850873948 124952161 968157980 617259141 123867446#0 123867446#1 711834657 157782133 552603210 301865762 301865760 301865758 28464122 28464124 851553865 969771216 851553864 28414195 28414192 961214969 961214966 28414138 961214965 28414139 508479336 30832610 961214967 172193150 408536268 394139590 508479329 517853507 30832603 30832604 508479332#0 508479332#1 157607609 395442655 157607611 1343731831 395439805 363648765 363648766 946464492 946464493 395439800 28435481 395439801 28435482 157593042 366053218 395439803 366053224 686995600 686995599 510072359 363634374 363634375 544299023 395437192 961388358 28435496 961388360 961388361 28435495 28435548 28435549 544984000 28435572 961388371 28435573 119271357 25657135#0 25657135#1 8966869 25657097 25657098 965564172 261596707 395336999 965564173 395336990 395336979 395336984 33104342 26174374 28432481 28432567 965853345 28432568 965853344 395336991 6240692 28665771 28665770 921643570 965853361 921643571 965853376 119271337 28317586 966059356 947811854 60723578 940408568 966059357 966059358"/>
    </vehicle>

    <vehicle id="702" type="DEFAULT_VEHTYPE" depart="20.00" departLane="free" departSpeed="22.4138" fromTaz="T1_880_1" toTaz="T1_17_1" speedFactor="1.1684" arrival="867.00">
        <route edges="861090333 617259163 863754537 158710528 850873947 850873948 124952161 968157980 617259141 123867446#0 123867446#1 711834657 157782133 552603210 301865762 301865760 301865758 28464122 28464124 851553865 969771216 851553864 28414195 28414192 961214969 961214966 28414138 961214965 28414139 508479336 30832610 961214967 172193150 408536268 394139590 508479329 517853507 30832603 30832604 508479332#0 508479332#1 157607609 395442655 157607611 1343731831 395439805 363648765 363648766 946464492 946464493 395439800 28435481 395439801 28435482 157593042 366053218 395439803 366053224 686995600 686995599 510072359 363634374 363634375 544299023 395437192 961388358 28435496 961388360 961388361 28435495 28435548 28435549 544984000 28435572 961388371 28435573 119271357 25657135#0 25657135#1 8966869 25657097 25657098 965564172 261596707 395336999 965564173 395336990 395336979 395336984 33104342 26174374 28432481 28432567 965853345 28432568 965853344 395336991 6240692 28665771 28665770 921643570 965853361 921643571 965853376 119271337 28317586 966059356 947811854 60723578 940408568 966059357 966059358"/>
    </vehicle>

    <vehicle id="703" type="DEFAULT_VEHTYPE" depart="22.00" departLane="free" departSpeed="29.9246" fromTaz="T1_880_1" toTaz="T1_17_1" speedFactor="1.2400" arrival="867.00">
        <route edges="861090333 617259163 863754537 158710528 850873947 850873948 124952161 968157980 617259141 123867446#0 123867446#1 711834657 157782133 552603210 301865762 301865760 301865758 28464122 28464124 851553865 969771216 851553864 28414195 28414192 961214969 961214966 28414138 961214965 28414139 508479336 30832610 961214967 172193150 408536268 394139590 508479329 517853507 30832603 30832604 508479332#0 508479332#1 157607609 395442655 157607611 1343731831 395439805 363648765 363648766 946464492 946464493 395439800 28435481 395439801 28435482 157593042 366053218 395439803 366053224 686995600 686995599 510072359 363634374 363634375 544299023 395437192 961388358 28435496 961388360 961388361 28435495 28435548 28435549 544984000 28435572 961388371 28435573 119271357 25657135#0 25657135#1 8966869 25657097 25657098 965564172 261596707 395336999 965564173 395336990 395336979 395336984 33104342 26174374 28432481 28432567 965853345 28432568 965853344 395336991 6240692 28665771 28665770 921643570 965853361 921643571 965853376 119271337 28317586 966059356 947811854 60723578 940408568 966059357 966059358"/>
    </vehicle>

    <vehicle id="692" type="DEFAULT_VEHTYPE" depart="8.00" departLane="free" departSpeed="28.6532" fromTaz="T1_880_1" toTaz="T1_17_1" speedFactor="0.9860" arrival="883.00">
        <route edges="861090333 617259163 863754537 158710528 850873947 850873948 124952161 968157980 617259141 123867446#0 123867446#1 711834657 157782133 552603210 301865762 301865760 301865758 28464122 28464124 851553865 969771216 851553864 28414195 28414192 961214969 961214966 28414138 961214965 28414139 508479336 30832610 961214967 172193150 408536268 394139590 508479329 517853507 30832603 30832604 508479332#0 508479332#1 157607609 395442655 157607611 1343731831 395439805 363648765 363648766 946464492 946464493 395439800 28435481 395439801 28435482 157593042 366053218 395439803 366053224 686995600 686995599 510072359 363634374 363634375 544299023 395437192 961388358 28435496 961388360 961388361 28435495 28435548 28435549 544984000 28435572 961388371 28435573 119271357 25657135#0 25657135#1 8966869 25657097 25657098 965564172 261596707 395336999 965564173 395336990 395336979 395336984 33104342 26174374 28432481 28432567 965853345 28432568 965853344 395336991 6240692 28665771 28665770 921643570 965853361 921643571 965853376 119271337 28317586 966059356 947811854 60723578 940408568 966059357 966059358"/>
    </vehicle>

    <vehicle id="698" type="DEFAULT_VEHTYPE" depart="15.00" departLane="free" departSpeed="23.204" fromTaz="T1_880_1" toTaz="T1_17_1" speedFactor="1.0458" arrival="883.00">
        <route edges="861090333 617259163 863754537 158710528 850873947 850873948 124952161 968157980 617259141 123867446#0 123867446#1 711834657 157782133 552603210 301865762 301865760 301865758 28464122 28464124 851553865 969771216 851553864 28414195 28414192 961214969 961214966 28414138 961214965 28414139 508479336 30832610 961214967 172193150 408536268 394139590 508479329 517853507 30832603 30832604 508479332#0 508479332#1 157607609 395442655 157607611 1343731831 395439805 363648765 363648766 946464492 946464493 395439800 28435481 395439801 28435482 157593042 366053218 395439803 366053224 686995600 686995599 510072359 363634374 363634375 544299023 395437192 961388358 28435496 961388360 961388361 28435495 28435548 28435549 544984000 28435572 961388371 28435573 119271357 25657135#0 25657135#1 8966869 25657097 25657098 965564172 261596707 395336999 965564173 395336990 395336979 395336984 33104342 26174374 28432481 28432567 965853345 28432568 965853344 395336991 6240692 28665771 28665770 921643570 965853361 921643571 965853376 119271337 28317586 966059356 947811854 60723578 940408568 966059357 966059358"/>
    </vehicle>

    <vehicle id="1070" type="DEFAULT_VEHTYPE" depart="1.00" departLane="free" departSpeed="24.173" fromTaz="T1_880_1" toTaz="T1_280_1" speedFactor="0.9454" arrival="902.00">
        <route edges="861090333 617259163 863754537 158710528 850873947 156651855 880544469 393495986 966218541 156651844 183343395 51350996 417910449 362158898 552152110 124952143 26297396 23011287 550271864 125343939 1343746547 123592887#0 123592887#1 554260214 550284606 550284605 8958375 206086131 1050201637 60759799 550284603 60759806 8958828 91887985 91887714 91887715 26027241 479773100 26027240 60759293 60759290 550284602 123592924#0 123592924#1 708615404 708615405 5011982 550284589 1343727391 123592890 5018720 550284591 550284590 5018717 5011984 550284595 550284594 5018648 5018679 5018680 5018678 5018675 617284127 705770570 5018649 705770569 550284588 4927662 550284586 26231703 30858344 30858343 30858341 91859494 91859520 22372547 848751592 848751591 848748039 848748038 26230997 26230999#0 26230999#1 942119440 867316120 967501778 967501777 967501776 184867255 13108160 967501780 967501779 967501781 617235607 20894099 517836093 416943095#0 416943095#1 343498596 25355829 530490479#0"/>
    </vehicle>

    <vehicle id="1074" type="DEFAULT_VEHTYPE" depart="2.00" departLane="free" departSpeed="18.3024" fromTaz="T1_880_1" toTaz="T1_280_1" speedFactor="0.9865" arrival="903.00">
        <route edges="861090333 617259163 863754537 158710528 850873947 156651855 880544469 393495986 966218541 156651844 183343395 51350996 417910449 362158898 552152110 124952143 26297396 23011287 550271864 125343939 1343746547 123592887#0 123592887#1 554260214 550284606 550284605 8958375 206086131 1050201637 60759799 550284603 60759806 8958828 91887985 91887714 91887715 26027241 479773100 26027240 60759293 60759290 550284602 123592924#0 123592924#1 708615404 708615405 5011982 550284589 1343727391 123592890 5018720 550284591 550284590 5018717 5011984 550284595 550284594 5018648 5018679 5018680 5018678 5018675 617284127 705770570 5018649 705770569 550284588 4927662 550284586 26231703 30858344 30858343 30858341 91859494 91859520 22372547 848751592 848751591 848748039 848748038 26230997 26230999#0 26230999#1 942119440 867316120 967501778 967501777 967501776 184867255 13108160 967501780 967501779 967501781 617235607 20894099 517836093 416943095#0 416943095#1 343498596 25355829 530490479#0"/>
    </vehicle>

    <vehicle id="0" type="DEFAULT_VEHTYPE" depart="2.00" departLane="free" departSpeed="28.1709" fromTaz="T1_680_1" toTaz="T1_17_1" speedFactor="1.2679" arrival="904.00">
        <route edges="93631344 8927038#1 552389451 617284172 23955194 942219372 942219371 28396117 28396115#0 28396115#1 28588884 28588888 850615424 850615423 28464671 28464668 942228866 508115730 508115731 617284166 28378890 28378888#0 28378888#1 28413845 28413844 508115743 508115744 544299032 508115745 31559321 31559320 52286754 52286756#0 52286756#1 31559311 158245363 31559312 959075971 31559315 31559316 498017763 619042922 619042923 28359106 28359104 959075949 28359068 28359059 924390040 959075951 28359016 959075950 28359013 28358963 760399064 28358961 959075964 28358874#0 28358874#1 860646752 959075963 955977944 158245364 768291603 967219595 967219596 27829315 961480477 617284142 961480478 261596720 28357725 28357724 961480485 961480484 28357714 28357715 28357705 28357704 23798288 942089751 617235585 961480529 922483578 124952168 922483579 961480530 33068788 354924841 25657128 8925953 946453068 965564172 261596707 395336999 965564173 395336990 395336979 395336984 33104342 26174374 28432481 28432567 965853345 28432568 965853344 395336991 6240692 28665771 28665770 921643570 965853361 921643571 965853376 119271337 28317586 966059356 947811854 60723578 940408568 966059357 508060359 966059376 517849947 517849945 508060360 155667053 850757718"/>
    </vehicle>

    <vehicle id="1075" type="DEFAULT_VEHTYPE" depart="3.00" departLane="free" departSpeed="20.3922" fromTaz="T1_880_1" toTaz="T1_280_1" speedFactor="1.0571" arrival="905.00">
        <route edges="861090333 617259163 863754537 158710528 850873947 156651855 880544469 393495986 966218541 156651844 183343395 51350996 417910449 362158898 552152110 124952143 26297396 23011287 550271864 125343939 1343746547 123592887#0 123592887#1 554260214 550284606 550284605 8958375 206086131 1050201637 60759799 550284603 60759806 8958828 91887985 91887714 91887715 26027241 479773100 26027240 60759293 60759290 550284602 123592924#0 123592924#1 708615404 708615405 5011982 550284589 1343727391 123592890 5018720 550284591 550284590 5018717 5011984 550284595 550284594 5018648 5018679 5018680 5018678 5018675 617284127 705770570 5018649 705770569 550284588 4927662 550284586 26231703 30858344 30858343 30858341 91859494 91859520 22372547 848751592 848751591 848748039 848748038 26230997 26230999#0 26230999#1 942119440 867316120 967501778 967501777 967501776 184867255 13108160 967501780 967501779 967501781 617235607 20894099 517836093 416943095#0 416943095#1 343498596 25355829 530490479#0"/>
    </vehicle>

    <vehicle id="1083" type="DEFAULT_VEHTYPE" depart="7.00" departLane="free" departSpeed="26.9305" fromTaz="T1_880_1" toTaz="T1_280_1" speedFactor="1.1519" arrival="906.00">
        <route edges="861090333 617259163 863754537 158710528 850873947 156651855 880544469 393495986 966218541 156651844 183343395 51350996 417910449 362158898 552152110 124952143 26297396 23011287 550271864 125343939 1343746547 123592887#0 123592887#1 554260214 550284606 550284605 8958375 206086131 1050201637 60759799 550284603 60759806 8958828 91887985 91887714 91887715 26027241 479773100 26027240 60759293 60759290 550284602 123592924#0 123592924#1 708615404 708615405 5011982 550284589 1343727391 123592890 5018720 550284591 550284590 5018717 5011984 550284595 550284594 5018648 5018679 5018680 5018678 5018675 617284127 705770570 5018649 705770569 550284588 4927662 550284586 26231703 30858344 30858343 30858341 91859494 91859520 22372547 848751592 848751591 848748039 848748038 26230997 26230999#0 26230999#1 942119440 867316120 967501778 967501777 967501776 184867255 13108160 967501780 967501779 967501781 617235607 20894099 517836093 416943095#0 416943095#1 343498596 25355829 530490479#0"/>
    </vehicle>

    <vehicle id="1078" type="DEFAULT_VEHTYPE" depart="3.00" departLane="free" departSpeed="17.7776" fromTaz="T1_880_1" toTaz="T1_280_1" speedFactor="1.1831" arrival="908.00">
        <route edges="861090333 617259163 863754537 158710528 850873947 156651855 880544469 393495986 966218541 156651844 183343395 51350996 417910449 362158898 552152110 124952143 26297396 23011287 550271864 125343939 1343746547 123592887#0 123592887#1 554260214 550284606 550284605 8958375 206086131 1050201637 60759799 550284603 60759806 8958828 91887985 91887714 91887715 26027241 479773100 26027240 60759293 60759290 550284602 123592924#0 123592924#1 708615404 708615405 5011982 550284589 1343727391 123592890 5018720 550284591 550284590 5018717 5011984 550284595 550284594 5018648 5018679 5018680 5018678 5018675 617284127 705770570 5018649 705770569 550284588 4927662 550284586 26231703 30858344 30858343 30858341 91859494 91859520 22372547 848751592 848751591 848748039 848748038 26230997 26230999#0 26230999#1 942119440 867316120 967501778 967501777 967501776 184867255 13108160 967501780 967501779 967501781 617235607 20894099 517836093 416943095#0 416943095#1 343498596 25355829 530490479#0"/>
    </vehicle>

    <vehicle id="701" type="DEFAULT_VEHTYPE" depart="19.00" departLane="free" departSpeed="22.0233" fromTaz="T1_880_1" toTaz="T1_17_1" speedFactor="1.0351" arrival="918.00">
        <route edges="861090333 617259163 863754537 158710528 850873947 850873948 124952161 968157980 617259141 123867446#0 123867446#1 711834657 157782133 552603210 301865762 301865760 301865758 28464122 28464124 851553865 969771216 851553864 28414195 28414192 961214969 961214966 28414138 961214965 28414139 508479336 30832610 961214967 172193150 408536268 394139590 508479329 517853507 30832603 30832604 508479332#0 508479332#1 157607609 395442655 157607611 1343731831 395439805 363648765 363648766 946464492 946464493 395439800 28435481 395439801 28435482 157593042 366053218 395439803 366053224 686995600 686995599 510072359 363634374 363634375 544299023 395437192 961388358 28435496 961388360 961388361 28435495 28435548 28435549 544984000 28435572 961388371 28435573 119271357 25657135#0 25657135#1 8966869 25657097 25657098 965564172 261596707 395336999 965564173 395336990 395336979 395336984 33104342 26174374 28432481 28432567 965853345 28432568 965853344 395336991 6240692 28665771 28665770 921643570 965853361 921643571 965853376 119271337 28317586 966059356 947811854 60723578 940408568 966059357 966059358"/>
    </vehicle>

    <vehicle id="704" type="DEFAULT_VEHTYPE" depart="23.00" departLane="free" departSpeed="20.9707" fromTaz="T1_880_1" toTaz="T1_17_1" speedFactor="1.0918" arrival="921.00">