<?xml version="1.0" encoding="UTF-8"?>

<!-- generated on 2025-01-29 12:16:11 by Eclipse SUMO sumo Version 1.21.0
<sumoConfiguration xmlns:xsi="http://www.w3.org/2001/XMLSchema-instance" xsi:noNamespaceSchemaLocation="http://sumo.dlr.de/xsd/sumoConfiguration.xsd">

    <input>
        <net-file value="C:\Users\seung\Documents\GIT\BO_UrbanMobility_Benchmark\network\network1_SF\net.xml"/>
        <route-files value="C:/Users/seung/Documents/GIT/BO_UrbanMobility_Benchmark/output/network1_SF_bo_vanilla/initial_search/sobol_4_trips.xml"/>
        <additional-files value="C:\Users\seung\Documents\GIT\BO_UrbanMobility_Benchmark\network\network1_SF\additional.xml"/>
    </input>

    <output>
        <output-prefix value="output/network1_SF_bo_vanilla/initial_search/sobol_4_"/>
        <vehroute-output value="routes.vehroutes.xml"/>
    </output>

    <time>
        <begin value="0"/>
        <end value="57600"/>
    </time>

    <processing>
        <ignore-route-errors value="true"/>
    </processing>

    <report>
        <verbose value="true"/>
        <xml-validation value="never"/>
        <no-warnings value="true"/>
        <duration-log.statistics value="true"/>
    </report>

    <mesoscopic>
        <mesosim value="true"/>
    </mesoscopic>

    <random_number>
        <seed value="0"/>
    </random_number>

</sumoConfiguration>
-->

<routes xmlns:xsi="http://www.w3.org/2001/XMLSchema-instance" xsi:noNamespaceSchemaLocation="http://sumo.dlr.de/xsd/routes_file.xsd">
    <vehicle id="129" type="DEFAULT_VEHTYPE" depart="3.00" departLane="free" departSpeed="25.3664" fromTaz="T1_880_1" toTaz="T1_17_1" speedFactor="1.2679" arrival="727.00">
        <route edges="861090333 617259163 863754537 158710528 850873947 850873948 124952161 968157980 617259141 123867446#0 123867446#1 711834657 157782133 552603210 301865762 301865760 301865758 28464122 28464124 851553865 969771216 851553864 28414195 28414192 961214969 961214966 28414138 961214965 28414139 508479336 30832610 961214967 172193150 408536268 394139590 508479329 517853507 30832603 30832604 508479332#0 508479332#1 157607609 395442655 157607611 1343731831 395439805 363648765 363648766 946464492 946464493 395439800 28435481 395439801 28435482 157593042 366053218 395439803 366053224 686995600 686995599 510072359 363634374 363634375 544299023 395437192 961388358 28435496 961388360 961388361 28435495 28435548 28435549 544984000 28435572 961388371 28435573 119271357 25657135#0 25657135#1 8966869 25657097 25657098 965564172 261596707 395336999 965564173 395336990 395336979 395336984 33104342 26174374 28432481 28432567 965853345 28432568 965853344 395336991 6240692 28665771 28665770 921643570 965853361 921643571 965853376 119271337 28317586 966059356 947811854 60723578 940408568 966059357 966059358"/>
    </vehicle>

    <vehicle id="124" type="DEFAULT_VEHTYPE" depart="1.00" departLane="free" departSpeed="32.4397" fromTaz="T1_880_1" toTaz="T1_17_1" speedFactor="1.1163" arrival="738.00">
        <route edges="861090333 617259163 863754537 158710528 850873947 850873948 124952161 968157980 617259141 123867446#0 123867446#1 711834657 157782133 552603210 301865762 301865760 301865758 28464122 28464124 851553865 969771216 851553864 28414195 28414192 961214969 961214966 28414138 961214965 28414139 508479336 30832610 961214967 172193150 408536268 394139590 508479329 517853507 30832603 30832604 508479332#0 508479332#1 157607609 395442655 157607611 1343731831 395439805 363648765 363648766 946464492 946464493 395439800 28435481 395439801 28435482 157593042 366053218 395439803 366053224 686995600 686995599 510072359 363634374 363634375 544299023 395437192 961388358 28435496 961388360 961388361 28435495 28435548 28435549 544984000 28435572 961388371 28435573 119271357 25657135#0 25657135#1 8966869 25657097 25657098 965564172 261596707 395336999 965564173 395336990 395336979 395336984 33104342 26174374 28432481 28432567 965853345 28432568 965853344 395336991 6240692 28665771 28665770 921643570 965853361 921643571 965853376 119271337 28317586 966059356 947811854 60723578 940408568 966059357 966059358"/>
    </vehicle>

    <vehicle id="127" type="DEFAULT_VEHTYPE" depart="2.00" departLane="free" departSpeed="24.173" fromTaz="T1_880_1" toTaz="T1_17_1" speedFactor="1.1558" arrival="739.00">
        <route edges="861090333 617259163 863754537 158710528 850873947 850873948 124952161 968157980 617259141 123867446#0 123867446#1 711834657 157782133 552603210 301865762 301865760 301865758 28464122 28464124 851553865 969771216 851553864 28414195 28414192 961214969 961214966 28414138 961214965 28414139 508479336 30832610 961214967 172193150 408536268 394139590 508479329 517853507 30832603 30832604 508479332#0 508479332#1 157607609 395442655 157607611 1343731831 395439805 363648765 363648766 946464492 946464493 395439800 28435481 395439801 28435482 157593042 366053218 395439803 366053224 686995600 686995599 510072359 363634374 363634375 544299023 395437192 961388358 28435496 961388360 961388361 28435495 28435548 28435549 544984000 28435572 961388371 28435573 119271357 25657135#0 25657135#1 8966869 25657097 25657098 965564172 261596707 395336999 965564173 395336990 395336979 395336984 33104342 26174374 28432481 28432567 965853345 28432568 965853344 395336991 6240692 28665771 28665770 921643570 965853361 921643571 965853376 119271337 28317586 966059356 947811854 60723578 940408568 966059357 966059358"/>
    </vehicle>

    <vehicle id="130" type="DEFAULT_VEHTYPE" depart="3.00" departLane="free" departSpeed="23.9084" fromTaz="T1_880_1" toTaz="T1_17_1" speedFactor="1.1255" arrival="771.00">
        <route edges="861090333 617259163 863754537 158710528 850873947 850873948 124952161 968157980 617259141 123867446#0 123867446#1 711834657 157782133 552603210 301865762 301865760 301865758 28464122 28464124 851553865 969771216 851553864 28414195 28414192 961214969 961214966 28414138 961214965 28414139 508479336 30832610 961214967 172193150 408536268 394139590 508479329 517853507 30832603 30832604 508479332#0 508479332#1 157607609 395442655 157607611 1343731831 395439805 363648765 363648766 946464492 946464493 395439800 28435481 395439801 28435482 157593042 366053218 395439803 366053224 686995600 686995599 510072359 363634374 363634375 544299023 395437192 961388358 28435496 961388360 961388361 28435495 28435548 28435549 544984000 28435572 961388371 28435573 119271357 25657135#0 25657135#1 8966869 25657097 25657098 965564172 261596707 395336999 965564173 395336990 395336979 395336984 33104342 26174374 28432481 28432567 965853345 28432568 965853344 395336991 6240692 28665771 28665770 921643570 965853361 921643571 965853376 119271337 28317586 966059356 947811854 60723578 940408568 966059357 966059358"/>
    </vehicle>

    <vehicle id="136" type="DEFAULT_VEHTYPE" depart="5.00" departLane="free" departSpeed="19.1106" fromTaz="T1_880_1" toTaz="T1_17_1" speedFactor="1.1831" arrival="776.00">
        <route edges="861090333 617259163 863754537 158710528 850873947 850873948 124952161 968157980 617259141 123867446#0 123867446#1 711834657 157782133 552603210 301865762 301865760 301865758 28464122 28464124 851553865 969771216 851553864 28414195 28414192 961214969 961214966 28414138 961214965 28414139 508479336 30832610 961214967 172193150 408536268 394139590 508479329 517853507 30832603 30832604 508479332#0 508479332#1 157607609 395442655 157607611 1343731831 395439805 363648765 363648766 946464492 946464493 395439800 28435481 395439801 28435482 157593042 366053218 395439803 366053224 686995600 686995599 510072359 363634374 363634375 544299023 395437192 961388358 28435496 961388360 961388361 28435495 28435548 28435549 544984000 28435572 961388371 28435573 119271357 25657135#0 25657135#1 8966869 25657097 25657098 965564172 261596707 395336999 965564173 395336990 395336979 395336984 33104342 26174374 28432481 28432567 965853345 28432568 965853344 395336991 6240692 28665771 28665770 921643570 965853361 921643571 965853376 119271337 28317586 966059356 947811854 60723578 940408568 966059357 966059358"/>
    </vehicle>

    <vehicle id="125" type="DEFAULT_VEHTYPE" depart="1.00" departLane="free" departSpeed="28.063" fromTaz="T1_880_1" toTaz="T1_17_1" speedFactor="1.0300" arrival="800.00">
        <route edges="861090333 617259163 863754537 158710528 850873947 850873948 124952161 968157980 617259141 123867446#0 123867446#1 711834657 157782133 552603210 301865762 301865760 301865758 28464122 28464124 851553865 969771216 851553864 28414195 28414192 961214969 961214966 28414138 961214965 28414139 508479336 30832610 961214967 172193150 408536268 394139590 508479329 517853507 30832603 30832604 508479332#0 508479332#1 157607609 395442655 157607611 1343731831 395439805 363648765 363648766 946464492 946464493 395439800 28435481 395439801 28435482 157593042 366053218 395439803 366053224 686995600 686995599 510072359 363634374 363634375 544299023 395437192 961388358 28435496 961388360 961388361 28435495 28435548 28435549 544984000 28435572 961388371 28435573 119271357 25657135#0 25657135#1 8966869 25657097 25657098 965564172 261596707 395336999 965564173 395336990 395336979 395336984 33104342 26174374 28432481 28432567 965853345 28432568 965853344 395336991 6240692 28665771 28665770 921643570 965853361 921643571 965853376 119271337 28317586 966059356 947811854 60723578 940408568 966059357 966059358"/>
    </vehicle>

    <vehicle id="925" type="DEFAULT_VEHTYPE" depart="1.00" departLane="free" departSpeed="30.0933" fromTaz="T1_880_1" toTaz="T1_280_1" speedFactor="1.0484" arrival="809.00">
        <route edges="861090333 617259163 863754537 158710528 850873947 156651855 880544469 393495986 966218541 156651844 183343395 51350996 417910449 362158898 552152110 124952143 26297396 23011287 550271864 125343939 1343746547 123592887#0 123592887#1 554260214 550284606 550284605 8958375 206086131 1050201637 60759799 550284603 60759806 8958828 91887985 91887714 91887715 26027241 479773100 26027240 60759293 60759290 550284602 123592924#0 123592924#1 708615404 708615405 5011982 550284589 1343727391 123592890 5018720 550284591 550284590 5018717 5011984 550284595 550284594 5018648 5018679 5018680 5018678 5018675 617284127 705770570 5018649 705770569 550284588 4927662 550284586 26231703 30858344 30858343 30858341 91859494 91859520 22372547 848751592 848751591 848748039 848748038 26230997 26230999#0 26230999#1 942119440 867316120 967501778 967501777 967501776 184867255 13108160 967501780 967501779 967501781 617235607 20894099 517836093 416943095#0 416943095#1 343498596 25355829 530490479#0"/>
    </vehicle>

    <vehicle id="126" type="DEFAULT_VEHTYPE" depart="1.00" departLane="free" departSpeed="26.2894" fromTaz="T1_880_1" toTaz="T1_17_1" speedFactor="1.0153" arrival="812.00">
        <route edges="861090333 617259163 863754537 158710528 850873947 850873948 124952161 968157980 617259141 123867446#0 123867446#1 711834657 157782133 552603210 301865762 301865760 301865758 28464122 28464124 851553865 969771216 851553864 28414195 28414192 961214969 961214966 28414138 961214965 28414139 508479336 30832610 961214967 172193150 408536268 394139590 508479329 517853507 30832603 30832604 508479332#0 508479332#1 157607609 395442655 157607611 1343731831 395439805 363648765 363648766 946464492 946464493 395439800 28435481 395439801 28435482 157593042 366053218 395439803 366053224 686995600 686995599 510072359 363634374 363634375 544299023 395437192 961388358 28435496 961388360 961388361 28435495 28435548 28435549 544984000 28435572 961388371 28435573 119271357 25657135#0 25657135#1 8966869 25657097 25657098 965564172 261596707 395336999 965564173 395336990 395336979 395336984 33104342 26174374 28432481 28432567 965853345 28432568 965853344 395336991 6240692 28665771 28665770 921643570 965853361 921643571 965853376 119271337 28317586 966059356 947811854 60723578 940408568 966059357 966059358"/>
    </vehicle>

    <vehicle id="927" type="DEFAULT_VEHTYPE" depart="2.00" departLane="free" departSpeed="21.0858" fromTaz="T1_880_1" toTaz="T1_280_1" speedFactor="1.0541" arrival="833.00">
        <route edges="861090333 617259163 863754537 158710528 850873947 156651855 880544469 393495986 966218541 156651844 183343395 51350996 417910449 362158898 552152110 124952143 26297396 23011287 550271864 125343939 1343746547 123592887#0 123592887#1 554260214 550284606 550284605 8958375 206086131 1050201637 60759799 550284603 60759806 8958828 91887985 91887714 91887715 26027241 479773100 26027240 60759293 60759290 550284602 123592924#0 123592924#1 708615404 708615405 5011982 550284589 1343727391 123592890 5018720 550284591 550284590 5018717 5011984 550284595 550284594 5018648 5018679 5018680 5018678 5018675 617284127 705770570 5018649 705770569 550284588 4927662 550284586 26231703 30858344 30858343 30858341 91859494 91859520 22372547 848751592 848751591 848748039 848748038 26230997 26230999#0 26230999#1 942119440 867316120 967501778 967501777 967501776 184867255 13108160 967501780 967501779 967501781 617235607 20894099 517836093 416943095#0 416943095#1 343498596 25355829 530490479#0"/>
    </vehicle>

    <vehicle id="132" type="DEFAULT_VEHTYPE" depart="4.00" departLane="free" departSpeed="25.8857" fromTaz="T1_880_1" toTaz="T1_17_1" speedFactor="0.9865" arrival="856.00">
        <route edges="861090333 617259163 863754537 158710528 850873947 850873948 124952161 968157980 617259141 123867446#0 123867446#1 711834657 157782133 552603210 301865762 301865760 301865758 28464122 28464124 851553865 969771216 851553864 28414195 28414192 961214969 961214966 28414138 961214965 28414139 508479336 30832610 961214967 172193150 408536268 394139590 508479329 517853507 30832603 30832604 508479332#0 508479332#1 157607609 395442655 157607611 1343731831 395439805 363648765 363648766 946464492 946464493 395439800 28435481 395439801 28435482 157593042 366053218 395439803 366053224 686995600 686995599 510072359 363634374 363634375 544299023 395437192 961388358 28435496 961388360 961388361 28435495 28435548 28435549 544984000 28435572 961388371 28435573 119271357 25657135#0 25657135#1 8966869 25657097 25657098 965564172 261596707 395336999 965564173 395336990 395336979 395336984 33104342 26174374 28432481 28432567 965853345 28432568 965853344 395336991 6240692 28665771 28665770 921643570 965853361 921643571 965853376 119271337 28317586 966059356 947811854 60723578 940408568 966059357 966059358"/>
    </vehicle>

    <vehicle id="133" type="DEFAULT_VEHTYPE" depart="4.00" departLane="free" departSpeed="23.0206" fromTaz="T1_880_1" toTaz="T1_17_1" speedFactor="1.0410" arrival="856.00">
        <route edges="861090333 617259163 863754537 158710528 850873947 850873948 124952161 968157980 617259141 123867446#0 123867446#1 711834657 157782133 552603210 301865762 301865760 301865758 28464122 28464124 851553865 969771216 851553864 28414195 28414192 961214969 961214966 28414138 961214965 28414139 508479336 30832610 961214967 172193150 408536268 394139590 508479329 517853507 30832603 30832604 508479332#0 508479332#1 157607609 395442655 157607611 1343731831 395439805 363648765 363648766 946464492 946464493 395439800 28435481 395439801 28435482 157593042 366053218 395439803 366053224 686995600 686995599 510072359 363634374 363634375 544299023 395437192 961388358 28435496 961388360 961388361 28435495 28435548 28435549 544984000 28435572 961388371 28435573 119271357 25657135#0 25657135#1 8966869 25657097 25657098 965564172 261596707 395336999 965564173 395336990 395336979 395336984 33104342 26174374 28432481 28432567 965853345 28432568 965853344 395336991 6240692 28665771 28665770 921643570 965853361 921643571 965853376 119271337 28317586 966059356 947811854 60723578 940408568 966059357 966059358"/>
    </vehicle>

    <vehicle id="135" type="DEFAULT_VEHTYPE" depart="5.00" departLane="free" departSpeed="20.0308" fromTaz="T1_880_1" toTaz="T1_17_1" speedFactor="1.1076" arrival="856.00">
        <route edges="861090333 617259163 863754537 158710528 850873947 850873948 124952161 968157980 617259141 123867446#0 123867446#1 711834657 157782133 552603210 301865762 301865760 301865758 28464122 28464124 851553865 969771216 851553864 28414195 28414192 961214969 961214966 28414138 961214965 28414139 508479336 30832610 961214967 172193150 408536268 394139590 508479329 517853507 30832603 30832604 508479332#0 508479332#1 157607609 395442655 157607611 1343731831 395439805 363648765 363648766 946464492 946464493 395439800 28435481 395439801 28435482 157593042 366053218 395439803 366053224 686995600 686995599 510072359 363634374 363634375 544299023 395437192 961388358 28435496 961388360 961388361 28435495 28435548 28435549 544984000 28435572 961388371 28435573 119271357 25657135#0 25657135#1 8966869 25657097 25657098 965564172 261596707 395336999 965564173 395336990 395336979 395336984 33104342 26174374 28432481 28432567 965853345 28432568 965853344 395336991 6240692 28665771 28665770 921643570 965853361 921643571 965853376 119271337 28317586 966059356 947811854 60723578 940408568 966059357 966059358"/>
    </vehicle>

    <vehicle id="134" type="DEFAULT_VEHTYPE" depart="4.00" departLane="free" departSpeed="21.8134" fromTaz="T1_880_1" toTaz="T1_17_1" speedFactor="1.0571" arrival="857.00">
        <route edges="861090333 617259163 863754537 158710528 850873947 850873948 124952161 968157980 617259141 123867446#0 123867446#1 711834657 157782133 552603210 301865762 301865760 301865758 28464122 28464124 851553865 969771216 851553864 28414195 28414192 961214969 961214966 28414138 961214965 28414139 508479336 30832610 961214967 172193150 408536268 394139590 508479329 517853507 30832603 30832604 508479332#0 508479332#1 157607609 395442655 157607611 1343731831 395439805 363648765 363648766 946464492 946464493 395439800 28435481 395439801 28435482 157593042 366053218 395439803 366053224 686995600 686995599 510072359 363634374 363634375 544299023 395437192 961388358 28435496 961388360 961388361 28435495 28435548 28435549 544984000 28435572 961388371 28435573 119271357 25657135#0 25657135#1 8966869 25657097 25657098 965564172 261596707 395336999 965564173 395336990 395336979 395336984 33104342 26174374 28432481 28432567 965853345 28432568 965853344 395336991 6240692 28665771 28665770 921643570 965853361 921643571 965853376 119271337 28317586 966059356 947811854 60723578 940408568 966059357 966059358"/>
    </vehicle>

    <vehicle id="140" type="DEFAULT_VEHTYPE" depart="8.00" departLane="free" departSpeed="28.1452" fromTaz="T1_880_1" toTaz="T1_17_1" speedFactor="1.0201" arrival="870.00">
        <route edges="861090333 617259163 863754537 158710528 850873947 850873948 124952161 968157980 617259141 123867446#0 123867446#1 711834657 157782133 552603210 301865762 301865760 301865758 28464122 28464124 851553865 969771216 851553864 28414195 28414192 961214969 961214966 28414138 961214965 28414139 508479336 30832610 961214967 172193150 408536268 394139590 508479329 517853507 30832603 30832604 508479332#0 508479332#1 157607609 395442655 157607611 1343731831 395439805 363648765 363648766 946464492 946464493 395439800 28435481 395439801 28435482 157593042 366053218 395439803 366053224 686995600 686995599 510072359 363634374 363634375 544299023 395437192 961388358 28435496 961388360 961388361 28435495 28435548 28435549 544984000 28435572 961388371 28435573 119271357 25657135#0 25657135#1 8966869 25657097 25657098 965564172 261596707 395336999 965564173 395336990 395336979 395336984 33104342 26174374 28432481 28432567 965853345 28432568 965853344 395336991 6240692 28665771 28665770 921643570 965853361 921643571 965853376 119271337 28317586 966059356 947811854 60723578 940408568 966059357 966059358"/>
    </vehicle>

    <vehicle id="142" type="DEFAULT_VEHTYPE" depart="8.00" departLane="free" departSpeed="23.3961" fromTaz="T1_880_1" toTaz="T1_17_1" speedFactor="1.1519" arrival="870.00">
        <route edges="861090333 617259163 863754537 158710528 850873947 850873948 124952161 968157980 617259141 123867446#0 123867446#1 711834657 157782133 552603210 301865762 301865760 301865758 28464122 28464124 851553865 969771216 851553864 28414195 28414192 961214969 961214966 28414138 961214965 28414139 508479336 30832610 961214967 172193150 408536268 394139590 508479329 517853507 30832603 30832604 508479332#0 508479332#1 157607609 395442655 157607611 1343731831 395439805 363648765 363648766 946464492 946464493 395439800 28435481 395439801 28435482 157593042 366053218 395439803 366053224 686995600 686995599 510072359 363634374 363634375 544299023 395437192 961388358 28435496 961388360 961388361 28435495 28435548 28435549 544984000 28435572 961388371 28435573 119271357 25657135#0 25657135#1 8966869 25657097 25657098 965564172 261596707 395336999 965564173 395336990 395336979 395336984 33104342 26174374 28432481 28432567 965853345 28432568 965853344 395336991 6240692 28665771 28665770 921643570 965853361 921643571 965853376 119271337 28317586 966059356 947811854 60723578 940408568 966059357 966059358"/>
    </vehicle>

    <vehicle id="143" type="DEFAULT_VEHTYPE" depart="8.00" departLane="free" departSpeed="22.1503" fromTaz="T1_880_1" toTaz="T1_17_1" speedFactor="1.1904" arrival="870.00">
        <route edges="861090333 617259163 863754537 158710528 850873947 850873948 124952161 968157980 617259141 123867446#0 123867446#1 711834657 157782133 552603210 301865762 301865760 301865758 28464122 28464124 851553865 969771216 851553864 28414195 28414192 961214969 961214966 28414138 961214965 28414139 508479336 30832610 961214967 172193150 408536268 394139590 508479329 517853507 30832603 30832604 508479332#0 508479332#1 157607609 395442655 157607611 1343731831 395439805 363648765 363648766 946464492 946464493 395439800 28435481 395439801 28435482 157593042 366053218 395439803 366053224 686995600 686995599 510072359 363634374 363634375 544299023 395437192 961388358 28435496 961388360 961388361 28435495 28435548 28435549 544984000 28435572 961388371 28435573 119271357 25657135#0 25657135#1 8966869 25657097 25657098 965564172 261596707 395336999 965564173 395336990 395336979 395336984 33104342 26174374 28432481 28432567 965853345 28432568 965853344 395336991 6240692 28665771 28665770 921643570 965853361 921643571 965853376 119271337 28317586 966059356 947811854 60723578 940408568 966059357 966059358"/>
    </vehicle>

    <vehicle id="141" type="DEFAULT_VEHTYPE" depart="8.00" departLane="free" departSpeed="26.3616" fromTaz="T1_880_1" toTaz="T1_17_1" speedFactor="1.0350" arrival="882.00">
        <route edges="861090333 617259163 863754537 158710528 850873947 850873948 124952161 968157980 617259141 123867446#0 123867446#1 711834657 157782133 552603210 301865762 301865760 301865758 28464122 28464124 851553865 969771216 851553864 28414195 28414192 961214969 961214966 28414138 961214965 28414139 508479336 30832610 961214967 172193150 408536268 394139590 508479329 517853507 30832603 30832604 508479332#0 508479332#1 157607609 395442655 157607611 1343731831 395439805 363648765 363648766 946464492 946464493 395439800 28435481 395439801 28435482 157593042 366053218 395439803 366053224 686995600 686995599 510072359 363634374 363634375 544299023 395437192 961388358 28435496 961388360 961388361 28435495 28435548 28435549 544984000 28435572 961388371 28435573 119271357 25657135#0 25657135#1 8966869 25657097 25657098 965564172 261596707 395336999 965564173 395336990 395336979 395336984 33104342 26174374 28432481 28432567 965853345 28432568 965853344 395336991 6240692 28665771 28665770 921643570 965853361 921643571 965853376 119271337 28317586 966059356 947811854 60723578 940408568 966059357 966059358"/>
    </vehicle>

    <vehicle id="131" type="DEFAULT_VEHTYPE" depart="3.00" departLane="free" departSpeed="21.4434" fromTaz="T1_880_1" toTaz="T1_17_1" speedFactor="0.9319" arrival="903.00">
        <route edges="861090333 617259163 863754537 158710528 850873947 850873948 124952161 968157980 617259141 123867446#0 123867446#1 711834657 157782133 552603210 301865762 301865760 301865758 28464122 28464124 851553865 969771216 851553864 28414195 28414192 961214969 961214966 28414138 961214965 28414139 508479336 30832610 961214967 172193150 408536268 394139590 508479329 517853507 30832603 30832604 508479332#0 508479332#1 157607609 395442655 157607611 1343731831 395439805 363648765 363648766 946464492 946464493 395439800 28435481 395439801 28435482 157593042 366053218 395439803 366053224 686995600 686995599 510072359 363634374 363634375 544299023 395437192 961388358 28435496 961388360 961388361 28435495 28435548 28435549 544984000 28435572 961388371 28435573 119271357 25657135#0 25657135#1 8966869 25657097 25657098 965564172 261596707 395336999 965564173 395336990 395336979 395336984 33104342 26174374 28432481 28432567 965853345 28432568 965853344 395336991 6240692 28665771 28665770 921643570 965853361 921643571 965853376 119271337 28317586 966059356 947811854 60723578 940408568 966059357 966059358"/>
    </vehicle>

    <vehicle id="145" type="DEFAULT_VEHTYPE" depart="10.00" departLane="free" departSpeed="28.378" fromTaz="T1_880_1" toTaz="T1_17_1" speedFactor="1.0297" arrival="903.00">
        <route edges="861090333 617259163 863754537 158710528 850873947 850873948 124952161 968157980 617259141 123867446#0 123867446#1 711834657 157782133 552603210 301865762 301865760 301865758 28464122 28464124 851553865 969771216 851553864 28414195 28414192 961214969 961214966 28414138 961214965 28414139 508479336 30832610 961214967 172193150 408536268 394139590 508479329 517853507 30832603 30832604 508479332#0 508479332#1 157607609 395442655 157607611 1343731831 395439805 363648765 363648766 946464492 946464493 395439800 28435481 395439801 28435482 157593042 366053218 395439803 366053224 686995600 686995599 510072359 363634374 363634375 544299023 395437192 961388358 28435496 961388360 961388361 28435495 28435548 28435549 544984000 28435572 961388371 28435573 119271357 25657135#0 25657135#1 8966869 25657097 25657098 965564172 261596707 395336999 965564173 395336990 395336979 395336984 33104342 26174374 28432481 28432567 965853345 28432568 965853344 395336991 6240692 28665771 28665770 921643570 965853361 921643571 965853376 119271337 28317586 966059356 947811854 60723578 940408568 966059357 966059358"/>
    </vehicle>

    <vehicle id="138" type="DEFAULT_VEHTYPE" depart="7.00" departLane="free" departSpeed="25.8231" fromTaz="T1_880_1" toTaz="T1_17_1" speedFactor="0.9408" arrival="921.00">
        <route edges="861090333 617259163 863754537 158710528 850873947 850873948 124952161 968157980 617259141 123867446#0 123867446#1 711834657 157782133 552603210 301865762 301865760 301865758 28464122 28464124 851553865 969771216 851553864 28414195 28414192 961214969 961214966 28414138 961214965 28414139 508479336 30832610 961214967 172193150 408536268 394139590 508479329 517853507 30832603 30832604 508479332#0 508479332#1 157607609 395442655 157607611 1343731831 395439805 363648765 363648766 946464492 946464493 395439800 28435481 395439801 28435482 157593042 366053218 395439803 366053224 686995600 686995599 510072359 363634374 363634375 544299023 395437192 961388358 28435496 961388360 961388361 28435495 28435548 28435549 544984000 28435572 961388371 28435573 119271357 25657135#0 25657135#1 8966869 25657097 25657098 965564172 261596707 395336999 965564173 395336990 395336979 395336984 33104342 26174374 28432481 28432567 965853345 28432568 965853344 395336991 6240692 28665771 28665770 921643570 965853361 921643571 965853376 119271337 28317586 966059356 947811854 60723578 940408568 966059357 966059358"/>
    </vehicle>

    <vehicle id="149" type="DEFAULT_VEHTYPE" depart="11.00" departLane="free" departSpeed="20.5448" fromTaz="T1_880_1" toTaz="T1_17_1" speedFactor="1.0079" arrival="921.00">
        <route edges="861090333 617259163 863754537 158710528 850873947 850873948 124952161 968157980 617259141 123867446#0 123867446#1 711834657 157782133 552603210 301865762 301865760 301865758 28464122 28464124 851553865 969771216 851553864 28414195 28414192 961214969 961214966 28414138 961214965 28414139 508479336 30832610 961214967 172193150 408536268 394139590 508479329 517853507 30832603 30832604 508479332#0 508479332#1 157607609 395442655 157607611 1343731831 395439805 363648765 363648766 946464492 946464493 395439800 28435481 395439801 28435482 157593042 366053218 395439803 366053224 686995600 686995599 510072359 363634374 363634375 544299023 395437192 961388358 28435496 961388360 961388361 28435495 28435548 28435549 544984000 28435572 961388371 28435573 119271357 25657135#0 25657135#1 8966869 25657097 25657098 965564172 261596707 395336999 965564173 395336990 395336979 395336984 33104342 26174374 28432481 28432567 965853345 28432568 965853344 395336991 6240692 28665771 28665770 921643570 965853361 921643571 965853376 119271337 28317586 966059356 947811854 60723578 940408568 966059357 966059358"/>
    </vehicle>

    <vehicle id="144" type="DEFAULT_VEHTYPE" depart="9.00" departLane="free" departSpeed="23.1258" fromTaz="T1_880_1" toTaz="T1_17_1" speedFactor="0.9860" arrival="927.00">