<?xml version="1.0" encoding="UTF-8"?>

<!-- generated on 2025-01-27 11:26:28 by Eclipse SUMO sumo Version 1.21.0
<sumoConfiguration xmlns:xsi="http://www.w3.org/2001/XMLSchema-instance" xsi:noNamespaceSchemaLocation="http://sumo.dlr.de/xsd/sumoConfiguration.xsd">

    <input>
        <net-file value="C:\Users\seung\Documents\GIT\BO_UrbanMobility_Benchmark\network\quickstart\net.xml"/>
        <route-files value="C:/Users/seung/Documents/GIT/BO_UrbanMobility_Benchmark/output/quickstart_bo_vanilla/BO/bayesOpt_73_0_trips.xml"/>
        <additional-files value="C:\Users\seung\Documents\GIT\BO_UrbanMobility_Benchmark\network\quickstart\additional.xml"/>
    </input>

    <output>
        <output-prefix value="output/quickstart_bo_vanilla/BO/bayesOpt_73_0_"/>
        <vehroute-output value="routes.vehroutes.xml"/>
    </output>

    <time>
        <begin value="0"/>
        <end value="57600"/>
    </time>

    <processing>
        <ignore-route-errors value="true"/>
    </processing>

    <report>
        <verbose value="true"/>
        <xml-validation value="never"/>
        <no-warnings value="true"/>
        <duration-log.statistics value="true"/>
    </report>

    <mesoscopic>
        <mesosim value="true"/>
    </mesoscopic>

    <random_number>
        <seed value="0"/>
    </random_number>

</sumoConfiguration>
-->

<routes xmlns:xsi="http://www.w3.org/2001/XMLSchema-instance" xsi:noNamespaceSchemaLocation="http://sumo.dlr.de/xsd/routes_file.xsd">
    <vehicle id="987" type="DEFAULT_VEHTYPE" depart="1.00" departLane="free" departSpeed="15.5054" fromTaz="taz92" toTaz="taz93" speedFactor="1.1163" arrival="258.00">
        <route edges="D4 L4 L14 L18 L5 D5"/>
    </vehicle>

    <vehicle id="489" type="DEFAULT_VEHTYPE" depart="1.00" departLane="free" departSpeed="14.3062" fromTaz="taz91" toTaz="taz94" speedFactor="1.0300" arrival="279.00">
        <route edges="D2 L2 L12 L10 L7 D7"/>
    </vehicle>

    <vehicle id="490" type="DEFAULT_VEHTYPE" depart="1.00" departLane="free" departSpeed="11.55" fromTaz="taz91" toTaz="taz94" speedFactor="1.0541" arrival="280.00">
        <route edges="D2 L2 L12 L10 L7 D7"/>
    </vehicle>

    <vehicle id="491" type="DEFAULT_VEHTYPE" depart="2.00" departLane="free" departSpeed="10.7227" fromTaz="taz91" toTaz="taz94" speedFactor="0.9865" arrival="294.00">
        <route edges="D2 L2 L12 L10 L7 D7"/>
    </vehicle>

    <vehicle id="492" type="DEFAULT_VEHTYPE" depart="3.00" departLane="free" departSpeed="10.006" fromTaz="taz91" toTaz="taz94" speedFactor="1.1076" arrival="295.00">
        <route edges="D2 L2 L12 L10 L7 D7"/>
    </vehicle>

    <vehicle id="493" type="DEFAULT_VEHTYPE" depart="3.00" departLane="free" departSpeed="8.5749" fromTaz="taz91" toTaz="taz94" speedFactor="0.9408" arrival="312.00">
        <route edges="D2 L2 L12 L10 L7 D7"/>
    </vehicle>

    <vehicle id="494" type="DEFAULT_VEHTYPE" depart="9.00" departLane="free" departSpeed="13.6426" fromTaz="taz91" toTaz="taz94" speedFactor="1.1519" arrival="312.00">
        <route edges="D2 L2 L12 L10 L7 D7"/>
    </vehicle>

    <vehicle id="495" type="DEFAULT_VEHTYPE" depart="11.00" departLane="free" departSpeed="14.2898" fromTaz="taz91" toTaz="taz94" speedFactor="1.0504" arrival="313.00">
        <route edges="D2 L2 L12 L10 L7 D7"/>
    </vehicle>

    <vehicle id="496" type="DEFAULT_VEHTYPE" depart="13.00" departLane="free" departSpeed="12.4922" fromTaz="taz91" toTaz="taz94" speedFactor="1.0079" arrival="316.00">
        <route edges="D2 L2 L12 L10 L7 D7"/>
    </vehicle>

    <vehicle id="988" type="DEFAULT_VEHTYPE" depart="1.00" departLane="free" departSpeed="12.2663" fromTaz="taz92" toTaz="taz93" speedFactor="0.8831" arrival="325.00">
        <route edges="D4 L4 L14 L18 L5 D5"/>
    </vehicle>

    <vehicle id="989" type="DEFAULT_VEHTYPE" depart="1.00" departLane="free" departSpeed="10.1833" fromTaz="taz92" toTaz="taz93" speedFactor="0.9454" arrival="326.00">
        <route edges="D4 L4 L14 L18 L5 D5"/>
    </vehicle>

    <vehicle id="990" type="DEFAULT_VEHTYPE" depart="2.00" departLane="free" departSpeed="9.5347" fromTaz="taz92" toTaz="taz93" speedFactor="1.1255" arrival="326.00">
        <route edges="D4 L4 L14 L18 L5 D5"/>
    </vehicle>

    <vehicle id="992" type="DEFAULT_VEHTYPE" depart="9.00" departLane="free" departSpeed="14.6542" fromTaz="taz92" toTaz="taz93" speedFactor="1.0571" arrival="327.00">
        <route edges="D4 L4 L14 L18 L5 D5"/>
    </vehicle>

    <vehicle id="1" type="DEFAULT_VEHTYPE" depart="1.00" departLane="free" departSpeed="10.5352" fromTaz="taz91" toTaz="taz93" speedFactor="1.2679" arrival="345.00">
        <route edges="D2 L2 L12 L15 L18 L5 D5"/>
    </vehicle>

    <vehicle id="991" type="DEFAULT_VEHTYPE" depart="2.00" departLane="free" departSpeed="8.2264" fromTaz="taz92" toTaz="taz93" speedFactor="0.9319" arrival="345.00">
        <route edges="D4 L4 L14 L18 L5 D5"/>
    </vehicle>

    <vehicle id="993" type="DEFAULT_VEHTYPE" depart="10.00" departLane="free" departSpeed="9.2807" fromTaz="taz92" toTaz="taz93" speedFactor="1.1831" arrival="346.00">
        <route edges="D4 L4 L14 L18 L5 D5"/>
    </vehicle>

    <vehicle id="497" type="DEFAULT_VEHTYPE" depart="14.00" departLane="free" departSpeed="11.53" fromTaz="taz91" toTaz="taz94" speedFactor="0.8477" arrival="352.00">
        <route edges="D2 L2 L12 L10 L7 D7"/>
    </vehicle>

    <vehicle id="498" type="DEFAULT_VEHTYPE" depart="16.00" departLane="free" departSpeed="11.989" fromTaz="taz91" toTaz="taz94" speedFactor="0.9522" arrival="353.00">
        <route edges="D2 L2 L12 L10 L7 D7"/>
    </vehicle>

    <vehicle id="499" type="DEFAULT_VEHTYPE" depart="18.00" departLane="free" departSpeed="12.486" fromTaz="taz91" toTaz="taz94" speedFactor="0.9461" arrival="353.00">
        <route edges="D2 L2 L12 L10 L7 D7"/>
    </vehicle>

    <vehicle id="500" type="DEFAULT_VEHTYPE" depart="21.00" departLane="free" departSpeed="14.9768" fromTaz="taz91" toTaz="taz94" speedFactor="1.1797" arrival="354.00">
        <route edges="D2 L2 L12 L10 L7 D7"/>
    </vehicle>

    <vehicle id="501" type="DEFAULT_VEHTYPE" depart="22.00" departLane="free" departSpeed="12.6662" fromTaz="taz91" toTaz="taz94" speedFactor="1.0326" arrival="354.00">
        <route edges="D2 L2 L12 L10 L7 D7"/>
    </vehicle>

    <vehicle id="502" type="DEFAULT_VEHTYPE" depart="24.00" departLane="free" departSpeed="12.2038" fromTaz="taz91" toTaz="taz94" speedFactor="0.8786" arrival="355.00">
        <route edges="D2 L2 L12 L10 L7 D7"/>
    </vehicle>

    <vehicle id="503" type="DEFAULT_VEHTYPE" depart="26.00" departLane="free" departSpeed="12.7194" fromTaz="taz91" toTaz="taz94" speedFactor="1.0517" arrival="355.00">
        <route edges="D2 L2 L12 L10 L7 D7"/>
    </vehicle>

    <vehicle id="1885" type="DEFAULT_VEHTYPE" depart="1.00" departLane="free" departSpeed="13.7306" fromTaz="taz92" toTaz="taz94" speedFactor="1.0484" arrival="356.00">
        <route edges="D4 L4 L14 L16 L10 L7 D7"/>
    </vehicle>

    <vehicle id="994" type="DEFAULT_VEHTYPE" depart="12.00" departLane="free" departSpeed="9.5758" fromTaz="taz92" toTaz="taz93" speedFactor="1.0054" arrival="356.00">
        <route edges="D4 L4 L14 L18 L5 D5"/>
    </vehicle>

    <vehicle id="995" type="DEFAULT_VEHTYPE" depart="14.00" departLane="free" departSpeed="9.8902" fromTaz="taz92" toTaz="taz93" speedFactor="0.9772" arrival="356.00">
        <route edges="D4 L4 L14 L18 L5 D5"/>
    </vehicle>

    <vehicle id="504" type="DEFAULT_VEHTYPE" depart="27.00" departLane="free" departSpeed="11.7233" fromTaz="taz91" toTaz="taz94" speedFactor="1.0299" arrival="356.00">
        <route edges="D2 L2 L12 L10 L7 D7"/>
    </vehicle>

    <vehicle id="0" type="DEFAULT_VEHTYPE" depart="1.00" departLane="free" departSpeed="12.7812" fromTaz="taz91" toTaz="taz93" speedFactor="1.0153" arrival="357.00">
        <route edges="D2 L2 L12 L15 L18 L5 D5"/>
    </vehicle>

    <vehicle id="996" type="DEFAULT_VEHTYPE" depart="15.00" departLane="free" departSpeed="9.2773" fromTaz="taz92" toTaz="taz93" speedFactor="1.0350" arrival="357.00">
        <route edges="D4 L4 L14 L18 L5 D5"/>
    </vehicle>

    <vehicle id="505" type="DEFAULT_VEHTYPE" depart="30.00" departLane="free" departSpeed="12.7698" fromTaz="taz91" toTaz="taz94" speedFactor="1.0508" arrival="357.00">
        <route edges="D2 L2 L12 L10 L7 D7"/>
    </vehicle>

    <vehicle id="506" type="DEFAULT_VEHTYPE" depart="31.00" departLane="free" departSpeed="11.7661" fromTaz="taz91" toTaz="taz94" speedFactor="1.1640" arrival="358.00">
        <route edges="D2 L2 L12 L10 L7 D7"/>
    </vehicle>

    <vehicle id="507" type="DEFAULT_VEHTYPE" depart="34.00" departLane="free" departSpeed="13.9528" fromTaz="taz91" toTaz="taz94" speedFactor="1.0959" arrival="358.00">
        <route edges="D2 L2 L12 L10 L7 D7"/>
    </vehicle>

    <vehicle id="508" type="DEFAULT_VEHTYPE" depart="35.00" departLane="free" departSpeed="12.7632" fromTaz="taz91" toTaz="taz94" speedFactor="1.2173" arrival="359.00">
        <route edges="D2 L2 L12 L10 L7 D7"/>
    </vehicle>

    <vehicle id="509" type="DEFAULT_VEHTYPE" depart="37.00" departLane="free" departSpeed="13.328" fromTaz="taz91" toTaz="taz94" speedFactor="0.9960" arrival="359.00">
        <route edges="D2 L2 L12 L10 L7 D7"/>
    </vehicle>

    <vehicle id="510" type="DEFAULT_VEHTYPE" depart="39.00" departLane="free" departSpeed="13.9451" fromTaz="taz91" toTaz="taz94" speedFactor="1.1812" arrival="360.00">
        <route edges="D2 L2 L12 L10 L7 D7"/>
    </vehicle>

    <vehicle id="511" type="DEFAULT_VEHTYPE" depart="41.00" departLane="free" departSpeed="13.7684" fromTaz="taz91" toTaz="taz94" speedFactor="0.9913" arrival="360.00">
        <route edges="D2 L2 L12 L10 L7 D7"/>
    </vehicle>

    <vehicle id="512" type="DEFAULT_VEHTYPE" depart="43.00" departLane="free" departSpeed="12.3229" fromTaz="taz91" toTaz="taz94" speedFactor="0.9840" arrival="362.00">
        <route edges="D2 L2 L12 L10 L7 D7"/>
    </vehicle>

    <vehicle id="513" type="DEFAULT_VEHTYPE" depart="44.00" departLane="free" departSpeed="11.3856" fromTaz="taz91" toTaz="taz94" speedFactor="1.1437" arrival="363.00">
        <route edges="D2 L2 L12 L10 L7 D7"/>
    </vehicle>

    <vehicle id="514" type="DEFAULT_VEHTYPE" depart="46.00" departLane="free" departSpeed="11.8329" fromTaz="taz91" toTaz="taz94" speedFactor="1.0139" arrival="363.00">
        <route edges="D2 L2 L12 L10 L7 D7"/>
    </vehicle>

    <vehicle id="515" type="DEFAULT_VEHTYPE" depart="48.00" departLane="free" departSpeed="12.3168" fromTaz="taz91" toTaz="taz94" speedFactor="1.0535" arrival="364.00">
        <route edges="D2 L2 L12 L10 L7 D7"/>
    </vehicle>

    <vehicle id="516" type="DEFAULT_VEHTYPE" depart="51.00" departLane="free" departSpeed="14.7341" fromTaz="taz91" toTaz="taz94" speedFactor="1.1660" arrival="364.00">
        <route edges="D2 L2 L12 L10 L7 D7"/>
    </vehicle>

    <vehicle id="1886" type="DEFAULT_VEHTYPE" depart="1.00" departLane="free" departSpeed="11.1284" fromTaz="taz92" toTaz="taz94" speedFactor="1.1558" arrival="365.00">
        <route edges="D4 L4 L14 L16 L10 L7 D7"/>
    </vehicle>

    <vehicle id="517" type="DEFAULT_VEHTYPE" depart="52.00" departLane="free" departSpeed="12.2294" fromTaz="taz91" toTaz="taz94" speedFactor="0.9643" arrival="373.00">
        <route edges="D2 L2 L12 L10 L7 D7"/>
    </vehicle>

    <vehicle id="518" type="DEFAULT_VEHTYPE" depart="54.00" departLane="free" departSpeed="12.747" fromTaz="taz91" toTaz="taz94" speedFactor="1.0788" arrival="374.00">
        <route edges="D2 L2 L12 L10 L7 D7"/>
    </vehicle>

    <vehicle id="519" type="DEFAULT_VEHTYPE" depart="56.00" departLane="free" departSpeed="12.0788" fromTaz="taz91" toTaz="taz94" speedFactor="1.0320" arrival="374.00">
        <route edges="D2 L2 L12 L10 L7 D7"/>
    </vehicle>

    <vehicle id="520" type="DEFAULT_VEHTYPE" depart="57.00" departLane="free" departSpeed="11.1769" fromTaz="taz91" toTaz="taz94" speedFactor="1.0758" arrival="375.00">
        <route edges="D2 L2 L12 L10 L7 D7"/>
    </vehicle>

    <vehicle id="997" type="DEFAULT_VEHTYPE" depart="20.00" departLane="free" departSpeed="11.7051" fromTaz="taz92" toTaz="taz93" speedFactor="0.8427" arrival="383.00">
        <route edges="D4 L4 L14 L18 L5 D5"/>
    </vehicle>

    <vehicle id="998" type="DEFAULT_VEHTYPE" depart="22.00" departLane="free" departSpeed="12.1788" fromTaz="taz92" toTaz="taz93" speedFactor="1.0297" arrival="383.00">
        <route edges="D4 L4 L14 L18 L5 D5"/>
    </vehicle>

    <vehicle id="999" type="DEFAULT_VEHTYPE" depart="24.00" departLane="free" departSpeed="12.692" fromTaz="taz92" toTaz="taz93" speedFactor="0.9450" arrival="384.00">
        <route edges="D4 L4 L14 L18 L5 D5"/>
    </vehicle>

    <vehicle id="2" type="DEFAULT_VEHTYPE" depart="2.00" departLane="free" departSpeed="9.8425" fromTaz="taz91" toTaz="taz93" speedFactor="1.0410" arrival="385.00">
        <route edges="D2 L2 L12 L15 L18 L5 D5"/>
    </vehicle>

    <vehicle id="1000" type="DEFAULT_VEHTYPE" depart="25.00" departLane="free" departSpeed="10.6417" fromTaz="taz92" toTaz="taz93" speedFactor="0.8892" arrival="385.00">
        <route edges="D4 L4 L14 L18 L5 D5"/>
    </vehicle>

    <vehicle id="521" type="DEFAULT_VEHTYPE" depart="60.00" departLane="free" departSpeed="12.9969" fromTaz="taz91" toTaz="taz94" speedFactor="0.9357" arrival="385.00">
        <route edges="D2 L2 L12 L10 L7 D7"/>
    </vehicle>

    <vehicle id="1001" type="DEFAULT_VEHTYPE" depart="27.00" departLane="free" departSpeed="11.0314" fromTaz="taz92" toTaz="taz93" speedFactor="0.8792" arrival="386.00">
        <route edges="D4 L4 L14 L18 L5 D5"/>
    </vehicle>

    <vehicle id="522" type="DEFAULT_VEHTYPE" depart="62.00" departLane="free" departSpeed="13.1544" fromTaz="taz91" toTaz="taz94" speedFactor="0.9471" arrival="386.00">
        <route edges="D2 L2 L12 L10 L7 D7"/>
    </vehicle>

    <vehicle id="523" type="DEFAULT_VEHTYPE" depart="64.00" departLane="free" departSpeed="12.8385" fromTaz="taz91" toTaz="taz94" speedFactor="0.9243" arrival="390.00">
        <route edges="D2 L2 L12 L10 L7 D7"/>
    </vehicle>

    <vehicle id="524" type="DEFAULT_VEHTYPE" depart="66.00" departLane="free" departSpeed="13.1191" fromTaz="taz91" toTaz="taz94" speedFactor="0.9445" arrival="390.00">
        <route edges="D2 L2 L12 L10 L7 D7"/>
    </vehicle>

    <vehicle id="525" type="DEFAULT_VEHTYPE" depart="67.00" departLane="free" departSpeed="12.0627" fromTaz="taz91" toTaz="taz94" speedFactor="1.0225" arrival="391.00">
        <route edges="D2 L2 L12 L10 L7 D7"/>
    </vehicle>

    <vehicle id="526" type="DEFAULT_VEHTYPE" depart="69.00" departLane="free" departSpeed="12.3259" fromTaz="taz91" toTaz="taz94" speedFactor="0.8874" arrival="401.00">
        <route edges="D2 L2 L12 L10 L7 D7"/>
    </vehicle>

    <vehicle id="527" type="DEFAULT_VEHTYPE" depart="71.00" departLane="free" departSpeed="12.692" fromTaz="taz91" toTaz="taz94" speedFactor="0.9261" arrival="402.00">
        <route edges="D2 L2 L12 L10 L7 D7"/>
    </vehicle>

    <vehicle id="528" type="DEFAULT_VEHTYPE" depart="73.00" departLane="free" departSpeed="13.2503" fromTaz="taz91" toTaz="taz94" speedFactor="1.0653" arrival="402.00">
        <route edges="D2 L2 L12 L10 L7 D7"/>
    </vehicle>

    <vehicle id="529" type="DEFAULT_VEHTYPE" depart="75.00" departLane="free" departSpeed="13.2219" fromTaz="taz91" toTaz="taz94" speedFactor="0.9519" arrival="403.00">
        <route edges="D2 L2 L12 L10 L7 D7"/>
    </vehicle>

    <vehicle id="530" type="DEFAULT_VEHTYPE" depart="77.00" departLane="free" departSpeed="13.4789" fromTaz="taz91" toTaz="taz94" speedFactor="0.9999" arrival="403.00">
        <route edges="D2 L2 L12 L10 L7 D7"/>
    </vehicle>

    <vehicle id="531" type="DEFAULT_VEHTYPE" depart="79.00" departLane="free" departSpeed="13.9331" fromTaz="taz91" toTaz="taz94" speedFactor="1.0031" arrival="404.00">
        <route edges="D2 L2 L12 L10 L7 D7"/>
    </vehicle>

    <vehicle id="532" type="DEFAULT_VEHTYPE" depart="80.00" departLane="free" departSpeed="12.747" fromTaz="taz91" toTaz="taz94" speedFactor="1.1238" arrival="405.00">
        <route edges="D2 L2 L12 L10 L7 D7"/>
    </vehicle>

    <vehicle id="533" type="DEFAULT_VEHTYPE" depart="82.00" departLane="free" departSpeed="13.0259" fromTaz="taz91" toTaz="taz94" speedFactor="1.1031" arrival="405.00">
        <route edges="D2 L2 L12 L10 L7 D7"/>
    </vehicle>

    <vehicle id="1888" type="DEFAULT_VEHTYPE" depart="2.00" departLane="free" departSpeed="8.8324" fromTaz="taz92" toTaz="taz94" speedFactor="0.9451" arrival="415.00">
        <route edges="D4 L4 L14 L16 L10 L7 D7"/>
    </vehicle>

    <vehicle id="534" type="DEFAULT_VEHTYPE" depart="84.00" departLane="free" departSpeed="11.9746" fromTaz="taz91" toTaz="taz94" speedFactor="0.9520" arrival="415.00">
        <route edges="D2 L2 L12 L10 L7 D7"/>
    </vehicle>

    <vehicle id="1002" type="DEFAULT_VEHTYPE" depart="30.00" departLane="free" departSpeed="10.3967" fromTaz="taz92" toTaz="taz93" speedFactor="0.7485" arrival="416.00">
        <route edges="D4 L4 L14 L18 L5 D5"/>
    </vehicle>

    <vehicle id="1004" type="DEFAULT_VEHTYPE" depart="34.00" departLane="free" departSpeed="11.1682" fromTaz="taz92" toTaz="taz93" speedFactor="0.9208" arrival="416.00">
        <route edges="D4 L4 L14 L18 L5 D5"/>
    </vehicle>

    <vehicle id="4" type="DEFAULT_VEHTYPE" depart="8.00" departLane="free" departSpeed="13.3404" fromTaz="taz91" toTaz="taz93" speedFactor="1.0859" arrival="417.00">
        <route edges="D2 L2 L12 L15 L18 L5 D5"/>
    </vehicle>

    <vehicle id="1003" type="DEFAULT_VEHTYPE" depart="32.00" departLane="free" departSpeed="10.7689" fromTaz="taz92" toTaz="taz93" speedFactor="0.9275" arrival="417.00">
        <route edges="D4 L4 L14 L18 L5 D5"/>
    </vehicle>

    <vehicle id="3" type="DEFAULT_VEHTYPE" depart="3.00" departLane="free" departSpeed="9.2353" fromTaz="taz91" toTaz="taz93" speedFactor="0.9386" arrival="418.00">
        <route edges="D2 L2 L12 L15 L18 L5 D5"/>
    </vehicle>

    <vehicle id="5" type="DEFAULT_VEHTYPE" depart="10.00" departLane="free" departSpeed="13.9587" fromTaz="taz91" toTaz="taz93" speedFactor="1.1904" arrival="418.00">
        <route edges="D2 L2 L12 L15 L18 L5 D5"/>
    </vehicle>

    <vehicle id="1007" type="DEFAULT_VEHTYPE" depart="41.00" departLane="free" departSpeed="11.2931" fromTaz="taz92" toTaz="taz93" speedFactor="0.9644" arrival="419.00">
        <route edges="D4 L4 L14 L18 L5 D5"/>
    </vehicle>

    <vehicle id="535" type="DEFAULT_VEHTYPE" depart="86.00" departLane="free" departSpeed="12.4704" fromTaz="taz91" toTaz="taz94" speedFactor="0.9320" arrival="419.00">
        <route edges="D2 L2 L12 L10 L7 D7"/>
    </vehicle>

    <vehicle id="537" type="DEFAULT_VEHTYPE" depart="89.00" departLane="free" departSpeed="10.7032" fromTaz="taz91" toTaz="taz94" speedFactor="1.0426" arrival="420.00">
        <route edges="D2 L2 L12 L10 L7 D7"/>
    </vehicle>

    <vehicle id="536" type="DEFAULT_VEHTYPE" depart="88.00" departLane="free" departSpeed="11.5273" fromTaz="taz91" toTaz="taz94" speedFactor="0.8299" arrival="445.00">
        <route edges="D2 L2 L12 L10 L7 D7"/>
    </vehicle>

    <vehicle id="538" type="DEFAULT_VEHTYPE" depart="92.00" departLane="free" departSpeed="12.4828" fromTaz="taz91" toTaz="taz94" speedFactor="0.9666" arrival="446.00">
        <route edges="D2 L2 L12 L10 L7 D7"/>
    </vehicle>

    <vehicle id="539" type="DEFAULT_VEHTYPE" depart="94.00" departLane="free" departSpeed="13.0225" fromTaz="taz91" toTaz="taz94" speedFactor="1.0051" arrival="447.00">
        <route edges="D2 L2 L12 L10 L7 D7"/>
    </vehicle>

    <vehicle id="540" type="DEFAULT_VEHTYPE" depart="95.00" departLane="free" departSpeed="11.9804" fromTaz="taz91" toTaz="taz94" speedFactor="1.0117" arrival="447.00">
        <route edges="D2 L2 L12 L10 L7 D7"/>
    </vehicle>

    <vehicle id="1889" type="DEFAULT_VEHTYPE" depart="8.00" departLane="free" departSpeed="14.3062" fromTaz="taz92" toTaz="taz94" speedFactor="1.0377" arrival="448.00">
        <route edges="D4 L4 L14 L16 L10 L7 D7"/>
    </vehicle>

    <vehicle id="541" type="DEFAULT_VEHTYPE" depart="98.00" departLane="free" departSpeed="13.8908" fromTaz="taz91" toTaz="taz94" speedFactor="1.0866" arrival="448.00">
        <route edges="D2 L2 L12 L10 L7 D7"/>
    </vehicle>

    <vehicle id="542" type="DEFAULT_VEHTYPE" depart="100.00" departLane="free" departSpeed="13.6073" fromTaz="taz91" toTaz="taz94" speedFactor="0.9797" arrival="449.00">
        <route edges="D2 L2 L12 L10 L7 D7"/>
    </vehicle>

    <vehicle id="543" type="DEFAULT_VEHTYPE" depart="101.00" departLane="free" departSpeed="11.3675" fromTaz="taz91" toTaz="taz94" speedFactor="1.0800" arrival="449.00">
        <route edges="D2 L2 L12 L10 L7 D7"/>
    </vehicle>

    <vehicle id="1005" type="DEFAULT_VEHTYPE" depart="36.00" departLane="free" departSpeed="9.5063" fromTaz="taz92" toTaz="taz93" speedFactor="0.6844" arrival="456.00">
        <route edges="D4 L4 L14 L18 L5 D5"/>
    </vehicle>

    <vehicle id="1006" type="DEFAULT_VEHTYPE" depart="37.00" departLane="free" departSpeed="8.9389" fromTaz="taz92" toTaz="taz93" speedFactor="0.8118" arrival="456.00">
        <route edges="D4 L4 L14 L18 L5 D5"/>
    </vehicle>

    <vehicle id="1008" type="DEFAULT_VEHTYPE" depart="43.00" departLane="free" departSpeed="11.4758" fromTaz="taz92" toTaz="taz93" speedFactor="0.8262" arrival="457.00">
        <route edges="D4 L4 L14 L18 L5 D5"/>
    </vehicle>

    <vehicle id="1011" type="DEFAULT_VEHTYPE" depart="50.00" departLane="free" departSpeed="12.9049" fromTaz="taz92" toTaz="taz93" speedFactor="1.2156" arrival="457.00">
        <route edges="D4 L4 L14 L18 L5 D5"/>
    </vehicle>

    <vehicle id="1009" type="DEFAULT_VEHTYPE" depart="44.00" departLane="free" departSpeed="10.6587" fromTaz="taz92" toTaz="taz93" speedFactor="1.0146" arrival="458.00">
        <route edges="D4 L4 L14 L18 L5 D5"/>
    </vehicle>

    <vehicle id="6" type="DEFAULT_VEHTYPE" depart="12.00" departLane="free" departSpeed="12.2384" fromTaz="taz91" toTaz="taz93" speedFactor="0.8811" arrival="459.00">
        <route edges="D2 L2 L12 L15 L18 L5 D5"/>
    </vehicle>

    <vehicle id="1010" type="DEFAULT_VEHTYPE" depart="48.00" departLane="free" departSpeed="14.1844" fromTaz="taz92" toTaz="taz93" speedFactor="1.0494" arrival="459.00">
        <route edges="D4 L4 L14 L18 L5 D5"/>
    </vehicle>

    <vehicle id="7" type="DEFAULT_VEHTYPE" depart="13.00" departLane="free" departSpeed="11.3135" fromTaz="taz91" toTaz="taz93" speedFactor="0.9254" arrival="460.00">
        <route edges="D2 L2 L12 L15 L18 L5 D5"/>
    </vehicle>

    <vehicle id="1012" type="DEFAULT_VEHTYPE" depart="51.00" departLane="free" departSpeed="11.8807" fromTaz="taz92" toTaz="taz93" speedFactor="0.8955" arrival="460.00">
        <route edges="D4 L4 L14 L18 L5 D5"/>
    </vehicle>

    <vehicle id="1013" type="DEFAULT_VEHTYPE" depart="53.00" departLane="free" departSpeed="12.3686" fromTaz="taz92" toTaz="taz93" speedFactor="0.9193" arrival="461.00">
        <route edges="D4 L4 L14 L18 L5 D5"/>
    </vehicle>

    <vehicle id="1014" type="DEFAULT_VEHTYPE" depart="55.00" departLane="free" departSpeed="12.8982" fromTaz="taz92" toTaz="taz93" speedFactor="1.0994" arrival="461.00">
        <route edges="D4 L4 L14 L18 L5 D5"/>
    </vehicle>

    <vehicle id="1015" type="DEFAULT_VEHTYPE" depart="57.00" departLane="free" departSpeed="13.4753" fromTaz="taz92" toTaz="taz93" speedFactor="1.0351" arrival="462.00">
        <route edges="D4 L4 L14 L18 L5 D5"/>
    </vehicle>

    <vehicle id="1016" type="DEFAULT_VEHTYPE" depart="59.00" departLane="free" departSpeed="13.1079" fromTaz="taz92" toTaz="taz93" speedFactor="1.1259" arrival="462.00">
        <route edges="D4 L4 L14 L18 L5 D5"/>
    </vehicle>

    <vehicle id="1017" type="DEFAULT_VEHTYPE" depart="61.00" departLane="free" departSpeed="12.8189" fromTaz="taz92" toTaz="taz93" speedFactor="1.1684" arrival="463.00">
        <route edges="D4 L4 L14 L18 L5 D5"/>
    </vehicle>

    <vehicle id="1018" type="DEFAULT_VEHTYPE" depart="62.00" departLane="free" departSpeed="11.8078" fromTaz="taz92" toTaz="taz93" speedFactor="1.0131" arrival="464.00">
        <route edges="D4 L4 L14 L18 L5 D5"/>
    </vehicle>

    <vehicle id="8" type="DEFAULT_VEHTYPE" depart="15.00" departLane="free" departSpeed="11.755" fromTaz="taz91" toTaz="taz93" speedFactor="0.8645" arrival="465.00">
        <route edges="D2 L2 L12 L15 L18 L5 D5"/>
    </vehicle>

    <vehicle id="9" type="DEFAULT_VEHTYPE" depart="17.00" departLane="free" departSpeed="12.2324" fromTaz="taz91" toTaz="taz93" speedFactor="0.8826" arrival="465.00">
        <route edges="D2 L2 L12 L15 L18 L5 D5"/>
    </vehicle>

    <vehicle id="1019" type="DEFAULT_VEHTYPE" depart="64.00" departLane="free" departSpeed="12.2895" fromTaz="taz92" toTaz="taz93" speedFactor="0.9615" arrival="466.00">
        <route edges="D4 L4 L14 L18 L5 D5"/>
    </vehicle>

    <vehicle id="10" type="DEFAULT_VEHTYPE" depart="18.00" departLane="free" departSpeed="11.3084" fromTaz="taz91" toTaz="taz93" speedFactor="0.9139" arrival="467.00">
        <route edges="D2 L2 L12 L15 L18 L5 D5"/>
    </vehicle>

    <vehicle id="11" type="DEFAULT_VEHTYPE" depart="22.00" departLane="free" departSpeed="14.1622" fromTaz="taz91" toTaz="taz93" speedFactor="1.0196" arrival="467.00">
        <route edges="D2 L2 L12 L15 L18 L5 D5"/>
    </vehicle>

    <vehicle id="1887" type="DEFAULT_VEHTYPE" depart="1.00" departLane="free" departSpeed="9.3861" fromTaz="taz92" toTaz="taz94" speedFactor="0.7644" arrival="469.00">
        <route edges="D4 L4 L14 L16 L10 L7 D7"/>
    </vehicle>

    <vehicle id="12" type="DEFAULT_VEHTYPE" depart="23.00" departLane="free" departSpeed="12.6482" fromTaz="taz91" toTaz="taz93" speedFactor="0.9106" arrival="469.00">
        <route edges="D2 L2 L12 L15 L18 L5 D5"/>
    </vehicle>

    <vehicle id="1020" type="DEFAULT_VEHTYPE" depart="66.00" departLane="free" departSpeed="11.8092" fromTaz="taz92" toTaz="taz93" speedFactor="0.8502" arrival="469.00">
        <route edges="D4 L4 L14 L18 L5 D5"/>
    </vehicle>

    <vehicle id="544" type="DEFAULT_VEHTYPE" depart="102.00" departLane="free" departSpeed="11.5861" fromTaz="taz91" toTaz="taz94" speedFactor="1.1120" arrival="469.00">
        <route edges="D2 L2 L12 L10 L7 D7"/>
    </vehicle>

    <vehicle id="1891" type="DEFAULT_VEHTYPE" depart="11.00" departLane="free" departSpeed="9.426" fromTaz="taz92" toTaz="taz94" speedFactor="0.8853" arrival="470.00">
        <route edges="D4 L4 L14 L16 L10 L7 D7"/>
    </vehicle>

    <vehicle id="13" type="DEFAULT_VEHTYPE" depart="25.00" departLane="free" departSpeed="12.4564" fromTaz="taz91" toTaz="taz93" speedFactor="1.1827" arrival="470.00">
        <route edges="D2 L2 L12 L15 L18 L5 D5"/>
    </vehicle>

    <vehicle id="1021" type="DEFAULT_VEHTYPE" depart="68.00" departLane="free" departSpeed="12.2911" fromTaz="taz92" toTaz="taz93" speedFactor="0.9727" arrival="470.00">
        <route edges="D4 L4 L14 L18 L5 D5"/>
    </vehicle>

    <vehicle id="545" type="DEFAULT_VEHTYPE" depart="104.00" departLane="free" departSpeed="12.0496" fromTaz="taz91" toTaz="taz94" speedFactor="0.9874" arrival="470.00">
        <route edges="D2 L2 L12 L10 L7 D7"/>
    </vehicle>

    <vehicle id="14" type="DEFAULT_VEHTYPE" depart="27.00" departLane="free" departSpeed="12.9938" fromTaz="taz91" toTaz="taz93" speedFactor="1.1377" arrival="471.00">
        <route edges="D2 L2 L12 L15 L18 L5 D5"/>
    </vehicle>

    <vehicle id="546" type="DEFAULT_VEHTYPE" depart="106.00" departLane="free" departSpeed="11.1247" fromTaz="taz91" toTaz="taz94" speedFactor="0.9648" arrival="471.00">
        <route edges="D2 L2 L12 L10 L7 D7"/>
    </vehicle>

    <vehicle id="1022" type="DEFAULT_VEHTYPE" depart="70.00" departLane="free" departSpeed="12.8139" fromTaz="taz92" toTaz="taz93" speedFactor="1.0075" arrival="472.00">
        <route edges="D4 L4 L14 L18 L5 D5"/>
    </vehicle>

    <vehicle id="1023" type="DEFAULT_VEHTYPE" depart="72.00" departLane="free" departSpeed="13.3833" fromTaz="taz92" toTaz="taz93" speedFactor="0.9644" arrival="472.00">
        <route edges="D4 L4 L14 L18 L5 D5"/>
    </vehicle>

    <vehicle id="547" type="DEFAULT_VEHTYPE" depart="108.00" departLane="free" departSpeed="11.5513" fromTaz="taz91" toTaz="taz94" speedFactor="0.9931" arrival="472.00">
        <route edges="D2 L2 L12 L10 L7 D7"/>
    </vehicle>

    <vehicle id="548" type="DEFAULT_VEHTYPE" depart="110.00" departLane="free" departSpeed="12.012" fromTaz="taz91" toTaz="taz94" speedFactor="0.9646" arrival="472.00">
        <route edges="D2 L2 L12 L10 L7 D7"/>
    </vehicle>

    <vehicle id="1024" type="DEFAULT_VEHTYPE" depart="73.00" departLane="free" departSpeed="12.164" fromTaz="taz92" toTaz="taz93" speedFactor="1.0497" arrival="473.00">
        <route edges="D4 L4 L14 L18 L5 D5"/>
    </vehicle>

    <vehicle id="1025" type="DEFAULT_VEHTYPE" depart="76.00" departLane="free" departSpeed="14.5159" fromTaz="taz92" toTaz="taz93" speedFactor="1.0646" arrival="473.00">
        <route edges="D4 L4 L14 L18 L5 D5"/>
    </vehicle>

    <vehicle id="549" type="DEFAULT_VEHTYPE" depart="112.00" departLane="free" departSpeed="12.5109" fromTaz="taz91" toTaz="taz94" speedFactor="0.9689" arrival="473.00">
        <route edges="D2 L2 L12 L10 L7 D7"/>
    </vehicle>

    <vehicle id="1026" type="DEFAULT_VEHTYPE" depart="77.00" departLane="free" departSpeed="11.0314" fromTaz="taz92" toTaz="taz93" speedFactor="0.9589" arrival="475.00">
        <route edges="D4 L4 L14 L18 L5 D5"/>
    </vehicle>

    <vehicle id="1027" type="DEFAULT_VEHTYPE" depart="79.00" departLane="free" departSpeed="11.4508" fromTaz="taz92" toTaz="taz93" speedFactor="1.0210" arrival="475.00">
        <route edges="D4 L4 L14 L18 L5 D5"/>
    </vehicle>

    <vehicle id="1028" type="DEFAULT_VEHTYPE" depart="81.00" departLane="free" departSpeed="11.9033" fromTaz="taz92" toTaz="taz93" speedFactor="1.0934" arrival="476.00">