<?xml version="1.0" encoding="UTF-8"?>

<!-- generated on 2025-01-27 11:27:19 by Eclipse SUMO sumo Version 1.21.0
<sumoConfiguration xmlns:xsi="http://www.w3.org/2001/XMLSchema-instance" xsi:noNamespaceSchemaLocation="http://sumo.dlr.de/xsd/sumoConfiguration.xsd">

    <input>
        <net-file value="C:\Users\seung\Documents\GIT\BO_UrbanMobility_Benchmark\network\quickstart\net.xml"/>
        <route-files value="C:/Users/seung/Documents/GIT/BO_UrbanMobility_Benchmark/output/quickstart_bo_vanilla/BO/bayesOpt_87_0_trips.xml"/>
        <additional-files value="C:\Users\seung\Documents\GIT\BO_UrbanMobility_Benchmark\network\quickstart\additional.xml"/>
    </input>

    <output>
        <output-prefix value="output/quickstart_bo_vanilla/BO/bayesOpt_87_0_"/>
        <vehroute-output value="routes.vehroutes.xml"/>
    </output>

    <time>
        <begin value="0"/>
        <end value="57600"/>
    </time>

    <processing>
        <ignore-route-errors value="true"/>
    </processing>

    <report>
        <verbose value="true"/>
        <xml-validation value="never"/>
        <no-warnings value="true"/>
        <duration-log.statistics value="true"/>
    </report>

    <mesoscopic>
        <mesosim value="true"/>
    </mesoscopic>

    <random_number>
        <seed value="0"/>
    </random_number>

</sumoConfiguration>
-->

<routes xmlns:xsi="http://www.w3.org/2001/XMLSchema-instance" xsi:noNamespaceSchemaLocation="http://sumo.dlr.de/xsd/routes_file.xsd">
    <vehicle id="613" type="DEFAULT_VEHTYPE" depart="1.00" departLane="free" departSpeed="15.5054" fromTaz="taz92" toTaz="taz93" speedFactor="1.1163" arrival="258.00">
        <route edges="D4 L4 L14 L18 L5 D5"/>
    </vehicle>

    <vehicle id="3" type="DEFAULT_VEHTYPE" depart="1.00" departLane="free" departSpeed="14.5623" fromTaz="taz91" toTaz="taz94" speedFactor="1.0484" arrival="274.00">
        <route edges="D2 L2 L12 L10 L7 D7"/>
    </vehicle>

    <vehicle id="614" type="DEFAULT_VEHTYPE" depart="1.00" departLane="free" departSpeed="13.7306" fromTaz="taz92" toTaz="taz93" speedFactor="1.0300" arrival="279.00">
        <route edges="D4 L4 L14 L18 L5 D5"/>
    </vehicle>

    <vehicle id="616" type="DEFAULT_VEHTYPE" depart="1.00" departLane="free" departSpeed="11.1719" fromTaz="taz92" toTaz="taz93" speedFactor="1.1558" arrival="280.00">
        <route edges="D4 L4 L14 L18 L5 D5"/>
    </vehicle>

    <vehicle id="615" type="DEFAULT_VEHTYPE" depart="1.00" departLane="free" departSpeed="12.3198" fromTaz="taz92" toTaz="taz93" speedFactor="1.0153" arrival="284.00">
        <route edges="D4 L4 L14 L18 L5 D5"/>
    </vehicle>

    <vehicle id="5" type="DEFAULT_VEHTYPE" depart="2.00" departLane="free" departSpeed="12.5219" fromTaz="taz91" toTaz="taz94" speedFactor="1.0541" arrival="298.00">
        <route edges="D2 L2 L12 L10 L7 D7"/>
    </vehicle>

    <vehicle id="617" type="DEFAULT_VEHTYPE" depart="2.00" departLane="free" departSpeed="11.383" fromTaz="taz92" toTaz="taz93" speedFactor="0.9454" arrival="306.00">
        <route edges="D4 L4 L14 L18 L5 D5"/>
    </vehicle>

    <vehicle id="618" type="DEFAULT_VEHTYPE" depart="2.00" departLane="free" departSpeed="9.5666" fromTaz="taz92" toTaz="taz93" speedFactor="1.2679" arrival="307.00">
        <route edges="D4 L4 L14 L18 L5 D5"/>
    </vehicle>

    <vehicle id="4" type="DEFAULT_VEHTYPE" depart="1.00" departLane="free" departSpeed="12.2663" fromTaz="taz91" toTaz="taz94" speedFactor="0.8831" arrival="325.00">
        <route edges="D2 L2 L12 L10 L7 D7"/>
    </vehicle>

    <vehicle id="6" type="DEFAULT_VEHTYPE" depart="2.00" departLane="free" departSpeed="11.3379" fromTaz="taz91" toTaz="taz94" speedFactor="0.9451" arrival="326.00">
        <route edges="D2 L2 L12 L10 L7 D7"/>
    </vehicle>

    <vehicle id="7" type="DEFAULT_VEHTYPE" depart="3.00" departLane="free" departSpeed="11.5554" fromTaz="taz91" toTaz="taz94" speedFactor="1.0377" arrival="326.00">
        <route edges="D2 L2 L12 L10 L7 D7"/>
    </vehicle>

    <vehicle id="9" type="DEFAULT_VEHTYPE" depart="4.00" departLane="free" departSpeed="10.2302" fromTaz="taz91" toTaz="taz94" speedFactor="1.1831" arrival="327.00">
        <route edges="D2 L2 L12 L10 L7 D7"/>
    </vehicle>

    <vehicle id="11" type="DEFAULT_VEHTYPE" depart="5.00" departLane="free" departSpeed="9.5758" fromTaz="taz91" toTaz="taz94" speedFactor="1.0350" arrival="338.00">
        <route edges="D2 L2 L12 L10 L7 D7"/>
    </vehicle>

    <vehicle id="619" type="DEFAULT_VEHTYPE" depart="2.00" departLane="free" departSpeed="8.8598" fromTaz="taz92" toTaz="taz93" speedFactor="1.1255" arrival="344.00">
        <route edges="D4 L4 L14 L18 L5 D5"/>
    </vehicle>

    <vehicle id="620" type="DEFAULT_VEHTYPE" depart="2.00" departLane="free" departSpeed="8.2501" fromTaz="taz92" toTaz="taz93" speedFactor="0.9319" arrival="344.00">
        <route edges="D4 L4 L14 L18 L5 D5"/>
    </vehicle>

    <vehicle id="621" type="DEFAULT_VEHTYPE" depart="8.00" departLane="free" departSpeed="13.7024" fromTaz="taz92" toTaz="taz93" speedFactor="0.9865" arrival="345.00">
        <route edges="D4 L4 L14 L18 L5 D5"/>
    </vehicle>

    <vehicle id="622" type="DEFAULT_VEHTYPE" depart="9.00" departLane="free" departSpeed="14.0213" fromTaz="taz92" toTaz="taz93" speedFactor="1.0410" arrival="345.00">
        <route edges="D4 L4 L14 L18 L5 D5"/>
    </vehicle>

    <vehicle id="623" type="DEFAULT_VEHTYPE" depart="10.00" departLane="free" departSpeed="14.3554" fromTaz="taz92" toTaz="taz93" speedFactor="1.0571" arrival="346.00">
        <route edges="D4 L4 L14 L18 L5 D5"/>
    </vehicle>

    <vehicle id="624" type="DEFAULT_VEHTYPE" depart="10.00" departLane="free" departSpeed="12.8205" fromTaz="taz92" toTaz="taz93" speedFactor="1.1076" arrival="346.00">
        <route edges="D4 L4 L14 L18 L5 D5"/>
    </vehicle>

    <vehicle id="626" type="DEFAULT_VEHTYPE" depart="12.00" departLane="free" departSpeed="12.2968" fromTaz="taz92" toTaz="taz93" speedFactor="0.8853" arrival="357.00">
        <route edges="D4 L4 L14 L18 L5 D5"/>
    </vehicle>

    <vehicle id="625" type="DEFAULT_VEHTYPE" depart="11.00" departLane="free" departSpeed="13.0372" fromTaz="taz92" toTaz="taz93" speedFactor="0.9386" arrival="358.00">
        <route edges="D4 L4 L14 L18 L5 D5"/>
    </vehicle>

    <vehicle id="628" type="DEFAULT_VEHTYPE" depart="15.00" departLane="free" departSpeed="10.591" fromTaz="taz92" toTaz="taz93" speedFactor="1.0859" arrival="358.00">
        <route edges="D4 L4 L14 L18 L5 D5"/>
    </vehicle>

    <vehicle id="630" type="DEFAULT_VEHTYPE" depart="17.00" departLane="free" departSpeed="10.9769" fromTaz="taz92" toTaz="taz93" speedFactor="1.0201" arrival="359.00">
        <route edges="D4 L4 L14 L18 L5 D5"/>
    </vehicle>

    <vehicle id="627" type="DEFAULT_VEHTYPE" depart="14.00" departLane="free" departSpeed="10.4078" fromTaz="taz92" toTaz="taz93" speedFactor="0.7493" arrival="397.00">
        <route edges="D4 L4 L14 L18 L5 D5"/>
    </vehicle>

    <vehicle id="632" type="DEFAULT_VEHTYPE" depart="18.00" departLane="free" departSpeed="10.227" fromTaz="taz92" toTaz="taz93" speedFactor="1.1519" arrival="397.00">
        <route edges="D4 L4 L14 L18 L5 D5"/>
    </vehicle>

    <vehicle id="8" type="DEFAULT_VEHTYPE" depart="3.00" departLane="free" departSpeed="10.0591" fromTaz="taz91" toTaz="taz94" speedFactor="0.7242" arrival="398.00">
        <route edges="D2 L2 L12 L10 L7 D7"/>
    </vehicle>

    <vehicle id="629" type="DEFAULT_VEHTYPE" depart="16.00" departLane="free" departSpeed="10.7805" fromTaz="taz92" toTaz="taz93" speedFactor="0.9772" arrival="398.00">
        <route edges="D4 L4 L14 L18 L5 D5"/>
    </vehicle>

    <vehicle id="634" type="DEFAULT_VEHTYPE" depart="21.00" departLane="free" departSpeed="11.8399" fromTaz="taz92" toTaz="taz93" speedFactor="0.9860" arrival="398.00">
        <route edges="D4 L4 L14 L18 L5 D5"/>
    </vehicle>

    <vehicle id="10" type="DEFAULT_VEHTYPE" depart="4.00" departLane="free" departSpeed="9.426" fromTaz="taz91" toTaz="taz94" speedFactor="0.9408" arrival="399.00">
        <route edges="D2 L2 L12 L10 L7 D7"/>
    </vehicle>

    <vehicle id="631" type="DEFAULT_VEHTYPE" depart="17.00" departLane="free" departSpeed="10.0563" fromTaz="taz92" toTaz="taz93" speedFactor="1.0536" arrival="399.00">
        <route edges="D4 L4 L14 L18 L5 D5"/>
    </vehicle>

    <vehicle id="13" type="DEFAULT_VEHTYPE" depart="10.00" departLane="free" departSpeed="14.0627" fromTaz="taz91" toTaz="taz94" speedFactor="1.0297" arrival="399.00">
        <route edges="D2 L2 L12 L10 L7 D7"/>
    </vehicle>

    <vehicle id="636" type="DEFAULT_VEHTYPE" depart="24.00" departLane="free" departSpeed="14.0568" fromTaz="taz92" toTaz="taz93" speedFactor="1.0504" arrival="399.00">
        <route edges="D4 L4 L14 L18 L5 D5"/>
    </vehicle>

    <vehicle id="633" type="DEFAULT_VEHTYPE" depart="19.00" departLane="free" departSpeed="10.4037" fromTaz="taz92" toTaz="taz93" speedFactor="0.8427" arrival="400.00">
        <route edges="D4 L4 L14 L18 L5 D5"/>
    </vehicle>

    <vehicle id="15" type="DEFAULT_VEHTYPE" depart="11.00" departLane="free" departSpeed="12.4922" fromTaz="taz91" toTaz="taz94" speedFactor="1.0079" arrival="400.00">
        <route edges="D2 L2 L12 L10 L7 D7"/>
    </vehicle>

    <vehicle id="12" type="DEFAULT_VEHTYPE" depart="8.00" departLane="free" departSpeed="12.0817" fromTaz="taz91" toTaz="taz94" speedFactor="1.1904" arrival="401.00">
        <route edges="D2 L2 L12 L10 L7 D7"/>
    </vehicle>

    <vehicle id="635" type="DEFAULT_VEHTYPE" depart="21.00" departLane="free" departSpeed="10.7759" fromTaz="taz92" toTaz="taz93" speedFactor="1.1311" arrival="401.00">
        <route edges="D4 L4 L14 L18 L5 D5"/>
    </vehicle>

    <vehicle id="14" type="DEFAULT_VEHTYPE" depart="10.00" departLane="free" departSpeed="12.2384" fromTaz="taz91" toTaz="taz94" speedFactor="0.8811" arrival="401.00">
        <route edges="D2 L2 L12 L10 L7 D7"/>
    </vehicle>

    <vehicle id="638" type="DEFAULT_VEHTYPE" depart="27.00" departLane="free" departSpeed="11.909" fromTaz="taz92" toTaz="taz93" speedFactor="0.8892" arrival="401.00">
        <route edges="D4 L4 L14 L18 L5 D5"/>
    </vehicle>

    <vehicle id="637" type="DEFAULT_VEHTYPE" depart="26.00" departLane="free" departSpeed="11.6782" fromTaz="taz92" toTaz="taz93" speedFactor="0.8408" arrival="402.00">
        <route edges="D4 L4 L14 L18 L5 D5"/>
    </vehicle>

    <vehicle id="640" type="DEFAULT_VEHTYPE" depart="28.00" departLane="free" departSpeed="11.0314" fromTaz="taz92" toTaz="taz93" speedFactor="0.9254" arrival="402.00">
        <route edges="D4 L4 L14 L18 L5 D5"/>
    </vehicle>

    <vehicle id="639" type="DEFAULT_VEHTYPE" depart="27.00" departLane="free" departSpeed="10.8331" fromTaz="taz92" toTaz="taz93" speedFactor="0.9081" arrival="403.00">
        <route edges="D4 L4 L14 L18 L5 D5"/>
    </vehicle>

    <vehicle id="16" type="DEFAULT_VEHTYPE" depart="12.00" departLane="free" departSpeed="12.2115" fromTaz="taz91" toTaz="taz94" speedFactor="0.8792" arrival="403.00">
        <route edges="D2 L2 L12 L10 L7 D7"/>
    </vehicle>

    <vehicle id="17" type="DEFAULT_VEHTYPE" depart="13.00" departLane="free" departSpeed="10.3967" fromTaz="taz91" toTaz="taz94" speedFactor="0.7485" arrival="403.00">
        <route edges="D2 L2 L12 L10 L7 D7"/>
    </vehicle>

    <vehicle id="641" type="DEFAULT_VEHTYPE" depart="29.00" departLane="free" departSpeed="11.2372" fromTaz="taz92" toTaz="taz93" speedFactor="1.1814" arrival="404.00">
        <route edges="D4 L4 L14 L18 L5 D5"/>
    </vehicle>

    <vehicle id="642" type="DEFAULT_VEHTYPE" depart="30.00" departLane="free" departSpeed="11.4508" fromTaz="taz92" toTaz="taz93" speedFactor="0.8477" arrival="404.00">
        <route edges="D4 L4 L14 L18 L5 D5"/>
    </vehicle>

    <vehicle id="18" type="DEFAULT_VEHTYPE" depart="14.00" departLane="free" departSpeed="10.5798" fromTaz="taz91" toTaz="taz94" speedFactor="0.9275" arrival="404.00">
        <route edges="D2 L2 L12 L10 L7 D7"/>
    </vehicle>

    <vehicle id="19" type="DEFAULT_VEHTYPE" depart="15.00" departLane="free" departSpeed="10.7689" fromTaz="taz91" toTaz="taz94" speedFactor="0.9208" arrival="404.00">
        <route edges="D2 L2 L12 L10 L7 D7"/>
    </vehicle>

    <vehicle id="643" type="DEFAULT_VEHTYPE" depart="31.00" departLane="free" departSpeed="11.6727" fromTaz="taz92" toTaz="taz93" speedFactor="0.8645" arrival="405.00">
        <route edges="D4 L4 L14 L18 L5 D5"/>
    </vehicle>

    <vehicle id="644" type="DEFAULT_VEHTYPE" depart="32.00" departLane="free" departSpeed="11.9033" fromTaz="taz92" toTaz="taz93" speedFactor="0.9043" arrival="405.00">
        <route edges="D4 L4 L14 L18 L5 D5"/>
    </vehicle>

    <vehicle id="21" type="DEFAULT_VEHTYPE" depart="17.00" departLane="free" departSpeed="11.1682" fromTaz="taz91" toTaz="taz94" speedFactor="0.8118" arrival="405.00">
        <route edges="D2 L2 L12 L10 L7 D7"/>
    </vehicle>

    <vehicle id="23" type="DEFAULT_VEHTYPE" depart="19.00" departLane="free" departSpeed="11.4758" fromTaz="taz91" toTaz="taz94" speedFactor="0.8262" arrival="405.00">
        <route edges="D2 L2 L12 L10 L7 D7"/>
    </vehicle>

    <vehicle id="645" type="DEFAULT_VEHTYPE" depart="33.00" departLane="free" departSpeed="12.1433" fromTaz="taz92" toTaz="taz93" speedFactor="1.1112" arrival="406.00">
        <route edges="D4 L4 L14 L18 L5 D5"/>
    </vehicle>

    <vehicle id="646" type="DEFAULT_VEHTYPE" depart="35.00" departLane="free" departSpeed="13.2258" fromTaz="taz92" toTaz="taz93" speedFactor="0.9522" arrival="406.00">
        <route edges="D4 L4 L14 L18 L5 D5"/>
    </vehicle>

    <vehicle id="20" type="DEFAULT_VEHTYPE" depart="16.00" departLane="free" departSpeed="10.9649" fromTaz="taz91" toTaz="taz94" speedFactor="1.2194" arrival="406.00">
        <route edges="D2 L2 L12 L10 L7 D7"/>
    </vehicle>

    <vehicle id="25" type="DEFAULT_VEHTYPE" depart="21.00" departLane="free" departSpeed="11.9303" fromTaz="taz91" toTaz="taz94" speedFactor="0.9096" arrival="406.00">
        <route edges="D2 L2 L12 L10 L7 D7"/>
    </vehicle>

    <vehicle id="647" type="DEFAULT_VEHTYPE" depart="37.00" departLane="free" departSpeed="12.5141" fromTaz="taz92" toTaz="taz93" speedFactor="1.0932" arrival="407.00">
        <route edges="D4 L4 L14 L18 L5 D5"/>
    </vehicle>

    <vehicle id="649" type="DEFAULT_VEHTYPE" depart="38.00" departLane="free" departSpeed="8.8082" fromTaz="taz92" toTaz="taz93" speedFactor="0.9461" arrival="407.00">
        <route edges="D4 L4 L14 L18 L5 D5"/>
    </vehicle>

    <vehicle id="22" type="DEFAULT_VEHTYPE" depart="18.00" departLane="free" departSpeed="11.3792" fromTaz="taz91" toTaz="taz94" speedFactor="0.9840" arrival="407.00">
        <route edges="D2 L2 L12 L10 L7 D7"/>
    </vehicle>

    <vehicle id="651" type="DEFAULT_VEHTYPE" depart="40.00" departLane="free" departSpeed="9.0736" fromTaz="taz92" toTaz="taz93" speedFactor="0.9279" arrival="408.00">
        <route edges="D4 L4 L14 L18 L5 D5"/>
    </vehicle>

    <vehicle id="24" type="DEFAULT_VEHTYPE" depart="20.00" departLane="free" departSpeed="11.6986" fromTaz="taz91" toTaz="taz94" speedFactor="1.0458" arrival="408.00">
        <route edges="D2 L2 L12 L10 L7 D7"/>
    </vehicle>

    <vehicle id="27" type="DEFAULT_VEHTYPE" depart="24.00" departLane="free" departSpeed="14.1844" fromTaz="taz91" toTaz="taz94" speedFactor="1.0517" arrival="408.00">
        <route edges="D2 L2 L12 L10 L7 D7"/>
    </vehicle>

    <vehicle id="29" type="DEFAULT_VEHTYPE" depart="26.00" departLane="free" departSpeed="11.1148" fromTaz="taz91" toTaz="taz94" speedFactor="0.8002" arrival="410.00">
        <route edges="D2 L2 L12 L10 L7 D7"/>
    </vehicle>

    <vehicle id="26" type="DEFAULT_VEHTYPE" depart="23.00" departLane="free" departSpeed="13.8581" fromTaz="taz91" toTaz="taz94" speedFactor="1.1827" arrival="411.00">
        <route edges="D2 L2 L12 L10 L7 D7"/>
    </vehicle>

    <vehicle id="31" type="DEFAULT_VEHTYPE" depart="27.00" departLane="free" departSpeed="10.3466" fromTaz="taz91" toTaz="taz94" speedFactor="1.0756" arrival="411.00">
        <route edges="D2 L2 L12 L10 L7 D7"/>
    </vehicle>

    <vehicle id="28" type="DEFAULT_VEHTYPE" depart="25.00" departLane="free" departSpeed="14.1761" fromTaz="taz91" toTaz="taz94" speedFactor="1.0206" arrival="412.00">
        <route edges="D2 L2 L12 L10 L7 D7"/>
    </vehicle>

    <vehicle id="33" type="DEFAULT_VEHTYPE" depart="29.00" departLane="free" departSpeed="10.7147" fromTaz="taz91" toTaz="taz94" speedFactor="0.9615" arrival="412.00">
        <route edges="D2 L2 L12 L10 L7 D7"/>
    </vehicle>

    <vehicle id="35" type="DEFAULT_VEHTYPE" depart="31.00" departLane="free" departSpeed="11.1099" fromTaz="taz91" toTaz="taz94" speedFactor="0.9727" arrival="413.00">
        <route edges="D2 L2 L12 L10 L7 D7"/>
    </vehicle>

    <vehicle id="30" type="DEFAULT_VEHTYPE" depart="26.00" departLane="free" departSpeed="10.1719" fromTaz="taz91" toTaz="taz94" speedFactor="1.1259" arrival="414.00">
        <route edges="D2 L2 L12 L10 L7 D7"/>
    </vehicle>

    <vehicle id="37" type="DEFAULT_VEHTYPE" depart="33.00" departLane="free" departSpeed="11.5354" fromTaz="taz91" toTaz="taz94" speedFactor="0.9644" arrival="414.00">
        <route edges="D2 L2 L12 L10 L7 D7"/>
    </vehicle>

    <vehicle id="32" type="DEFAULT_VEHTYPE" depart="28.00" departLane="free" departSpeed="10.5274" fromTaz="taz91" toTaz="taz94" speedFactor="1.0131" arrival="415.00">
        <route edges="D2 L2 L12 L10 L7 D7"/>
    </vehicle>

    <vehicle id="39" type="DEFAULT_VEHTYPE" depart="36.00" departLane="free" departSpeed="13.6295" fromTaz="taz91" toTaz="taz94" speedFactor="1.1812" arrival="415.00">
        <route edges="D2 L2 L12 L10 L7 D7"/>
    </vehicle>

    <vehicle id="34" type="DEFAULT_VEHTYPE" depart="30.00" departLane="free" departSpeed="10.9087" fromTaz="taz91" toTaz="taz94" speedFactor="0.8502" arrival="417.00">
        <route edges="D2 L2 L12 L10 L7 D7"/>
    </vehicle>

    <vehicle id="41" type="DEFAULT_VEHTYPE" depart="38.00" departLane="free" departSpeed="13.6203" fromTaz="taz91" toTaz="taz94" speedFactor="1.1464" arrival="418.00">
        <route edges="D2 L2 L12 L10 L7 D7"/>
    </vehicle>

    <vehicle id="43" type="DEFAULT_VEHTYPE" depart="40.00" departLane="free" departSpeed="14.2653" fromTaz="taz91" toTaz="taz94" speedFactor="1.3132" arrival="418.00">
        <route edges="D2 L2 L12 L10 L7 D7"/>
    </vehicle>

    <vehicle id="36" type="DEFAULT_VEHTYPE" depart="32.00" departLane="free" departSpeed="11.3186" fromTaz="taz91" toTaz="taz94" speedFactor="1.0075" arrival="419.00">
        <route edges="D2 L2 L12 L10 L7 D7"/>
    </vehicle>

    <vehicle id="38" type="DEFAULT_VEHTYPE" depart="35.00" departLane="free" departSpeed="13.328" fromTaz="taz91" toTaz="taz94" speedFactor="1.1380" arrival="419.00">
        <route edges="D2 L2 L12 L10 L7 D7"/>
    </vehicle>

    <vehicle id="45" type="DEFAULT_VEHTYPE" depart="41.00" departLane="free" departSpeed="13.0242" fromTaz="taz91" toTaz="taz94" speedFactor="1.0684" arrival="420.00">
        <route edges="D2 L2 L12 L10 L7 D7"/>
    </vehicle>

    <vehicle id="40" type="DEFAULT_VEHTYPE" depart="37.00" departLane="free" departSpeed="13.3191" fromTaz="taz91" toTaz="taz94" speedFactor="0.9589" arrival="421.00">
        <route edges="D2 L2 L12 L10 L7 D7"/>
    </vehicle>

    <vehicle id="47" type="DEFAULT_VEHTYPE" depart="43.00" departLane="free" departSpeed="13.6129" fromTaz="taz91" toTaz="taz94" speedFactor="1.0109" arrival="421.00">
        <route edges="D2 L2 L12 L10 L7 D7"/>
    </vehicle>

    <vehicle id="42" type="DEFAULT_VEHTYPE" depart="39.00" departLane="free" departSpeed="13.9353" fromTaz="taz91" toTaz="taz94" speedFactor="1.0538" arrival="422.00">
        <route edges="D2 L2 L12 L10 L7 D7"/>
    </vehicle>

    <vehicle id="49" type="DEFAULT_VEHTYPE" depart="45.00" departLane="free" departSpeed="13.5355" fromTaz="taz91" toTaz="taz94" speedFactor="1.0643" arrival="422.00">
        <route edges="D2 L2 L12 L10 L7 D7"/>
    </vehicle>

    <vehicle id="44" type="DEFAULT_VEHTYPE" depart="41.00" departLane="free" departSpeed="14.6113" fromTaz="taz91" toTaz="taz94" speedFactor="1.1437" arrival="423.00">
        <route edges="D2 L2 L12 L10 L7 D7"/>
    </vehicle>

    <vehicle id="46" type="DEFAULT_VEHTYPE" depart="42.00" departLane="free" departSpeed="13.312" fromTaz="taz91" toTaz="taz94" speedFactor="1.0139" arrival="425.00">
        <route edges="D2 L2 L12 L10 L7 D7"/>
    </vehicle>

    <vehicle id="51" type="DEFAULT_VEHTYPE" depart="47.00" departLane="free" departSpeed="12.6406" fromTaz="taz91" toTaz="taz94" speedFactor="0.9643" arrival="425.00">
        <route edges="D2 L2 L12 L10 L7 D7"/>
    </vehicle>

    <vehicle id="53" type="DEFAULT_VEHTYPE" depart="48.00" departLane="free" departSpeed="11.6564" fromTaz="taz91" toTaz="taz94" speedFactor="1.0565" arrival="426.00">
        <route edges="D2 L2 L12 L10 L7 D7"/>
    </vehicle>

    <vehicle id="48" type="DEFAULT_VEHTYPE" depart="44.00" departLane="free" departSpeed="13.238" fromTaz="taz91" toTaz="taz94" speedFactor="0.9531" arrival="427.00">
        <route edges="D2 L2 L12 L10 L7 D7"/>
    </vehicle>

    <vehicle id="55" type="DEFAULT_VEHTYPE" depart="50.00" departLane="free" departSpeed="12.1256" fromTaz="taz91" toTaz="taz94" speedFactor="0.9716" arrival="427.00">
        <route edges="D2 L2 L12 L10 L7 D7"/>
    </vehicle>

    <vehicle id="50" type="DEFAULT_VEHTYPE" depart="46.00" departLane="free" departSpeed="12.3802" fromTaz="taz91" toTaz="taz94" speedFactor="0.8913" arrival="429.00">
        <route edges="D2 L2 L12 L10 L7 D7"/>
    </vehicle>

    <vehicle id="57" type="DEFAULT_VEHTYPE" depart="52.00" departLane="free" departSpeed="12.6342" fromTaz="taz91" toTaz="taz94" speedFactor="1.0612" arrival="429.00">
        <route edges="D2 L2 L12 L10 L7 D7"/>
    </vehicle>

    <vehicle id="52" type="DEFAULT_VEHTYPE" depart="48.00" departLane="free" departSpeed="12.9116" fromTaz="taz91" toTaz="taz94" speedFactor="1.2004" arrival="430.00">
        <route edges="D2 L2 L12 L10 L7 D7"/>
    </vehicle>

    <vehicle id="54" type="DEFAULT_VEHTYPE" depart="49.00" departLane="free" departSpeed="11.8864" fromTaz="taz91" toTaz="taz94" speedFactor="1.0271" arrival="431.00">
        <route edges="D2 L2 L12 L10 L7 D7"/>
    </vehicle>

    <vehicle id="59" type="DEFAULT_VEHTYPE" depart="55.00" departLane="free" departSpeed="13.328" fromTaz="taz91" toTaz="taz94" speedFactor="0.9596" arrival="431.00">
        <route edges="D2 L2 L12 L10 L7 D7"/>
    </vehicle>

    <vehicle id="61" type="DEFAULT_VEHTYPE" depart="56.00" departLane="free" departSpeed="12.2384" fromTaz="taz91" toTaz="taz94" speedFactor="0.9243" arrival="432.00">
        <route edges="D2 L2 L12 L10 L7 D7"/>
    </vehicle>

    <vehicle id="56" type="DEFAULT_VEHTYPE" depart="51.00" departLane="free" departSpeed="12.3747" fromTaz="taz91" toTaz="taz94" speedFactor="1.1279" arrival="433.00">
        <route edges="D2 L2 L12 L10 L7 D7"/>
    </vehicle>

    <vehicle id="58" type="DEFAULT_VEHTYPE" depart="53.00" departLane="free" departSpeed="12.9049" fromTaz="taz91" toTaz="taz94" speedFactor="1.0355" arrival="434.00">
        <route edges="D2 L2 L12 L10 L7 D7"/>
    </vehicle>

    <vehicle id="63" type="DEFAULT_VEHTYPE" depart="58.00" departLane="free" departSpeed="12.7567" fromTaz="taz91" toTaz="taz94" speedFactor="0.9445" arrival="434.00">
        <route edges="D2 L2 L12 L10 L7 D7"/>
    </vehicle>

    <vehicle id="65" type="DEFAULT_VEHTYPE" depart="60.00" departLane="free" departSpeed="12.955" fromTaz="taz91" toTaz="taz94" speedFactor="1.0198" arrival="435.00">
        <route edges="D2 L2 L12 L10 L7 D7"/>
    </vehicle>

    <vehicle id="60" type="DEFAULT_VEHTYPE" depart="55.00" departLane="free" departSpeed="11.9947" fromTaz="taz91" toTaz="taz94" speedFactor="0.9811" arrival="436.00">
        <route edges="D2 L2 L12 L10 L7 D7"/>
    </vehicle>

    <vehicle id="67" type="DEFAULT_VEHTYPE" depart="61.00" departLane="free" departSpeed="11.9232" fromTaz="taz91" toTaz="taz94" speedFactor="1.0490" arrival="436.00">
        <route edges="D2 L2 L12 L10 L7 D7"/>
    </vehicle>

    <vehicle id="62" type="DEFAULT_VEHTYPE" depart="57.00" departLane="free" departSpeed="12.4922" fromTaz="taz91" toTaz="taz94" speedFactor="1.1047" arrival="437.00">
        <route edges="D2 L2 L12 L10 L7 D7"/>
    </vehicle>

    <vehicle id="69" type="DEFAULT_VEHTYPE" depart="64.00" departLane="free" departSpeed="12.9802" fromTaz="taz91" toTaz="taz94" speedFactor="0.9345" arrival="438.00">
        <route edges="D2 L2 L12 L10 L7 D7"/>
    </vehicle>

    <vehicle id="64" type="DEFAULT_VEHTYPE" depart="59.00" departLane="free" departSpeed="12.6823" fromTaz="taz91" toTaz="taz94" speedFactor="0.9131" arrival="439.00">
        <route edges="D2 L2 L12 L10 L7 D7"/>
    </vehicle>

    <vehicle id="71" type="DEFAULT_VEHTYPE" depart="66.00" departLane="free" departSpeed="13.2219" fromTaz="taz91" toTaz="taz94" speedFactor="0.9519" arrival="440.00">
        <route edges="D2 L2 L12 L10 L7 D7"/>
    </vehicle>

    <vehicle id="66" type="DEFAULT_VEHTYPE" depart="60.00" departLane="free" departSpeed="11.6918" fromTaz="taz91" toTaz="taz94" speedFactor="0.8994" arrival="441.00">
        <route edges="D2 L2 L12 L10 L7 D7"/>
    </vehicle>

    <vehicle id="73" type="DEFAULT_VEHTYPE" depart="67.00" departLane="free" departSpeed="12.1492" fromTaz="taz91" toTaz="taz94" speedFactor="0.9999" arrival="441.00">
        <route edges="D2 L2 L12 L10 L7 D7"/>
    </vehicle>

    <vehicle id="68" type="DEFAULT_VEHTYPE" depart="63.00" departLane="free" departSpeed="12.8634" fromTaz="taz91" toTaz="taz94" speedFactor="0.9261" arrival="442.00">
        <route edges="D2 L2 L12 L10 L7 D7"/>
    </vehicle>

    <vehicle id="70" type="DEFAULT_VEHTYPE" depart="65.00" departLane="free" departSpeed="13.2661" fromTaz="taz91" toTaz="taz94" speedFactor="1.0653" arrival="443.00">
        <route edges="D2 L2 L12 L10 L7 D7"/>
    </vehicle>

    <vehicle id="75" type="DEFAULT_VEHTYPE" depart="69.00" departLane="free" departSpeed="12.6566" fromTaz="taz91" toTaz="taz94" speedFactor="0.9148" arrival="443.00">
        <route edges="D2 L2 L12 L10 L7 D7"/>
    </vehicle>

    <vehicle id="72" type="DEFAULT_VEHTYPE" depart="66.00" departLane="free" departSpeed="11.909" fromTaz="taz91" toTaz="taz94" speedFactor="0.9619" arrival="444.00">
        <route edges="D2 L2 L12 L10 L7 D7"/>
    </vehicle>

    <vehicle id="77" type="DEFAULT_VEHTYPE" depart="71.00" departLane="free" departSpeed="13.1978" fromTaz="taz91" toTaz="taz94" speedFactor="0.9502" arrival="444.00">
        <route edges="D2 L2 L12 L10 L7 D7"/>
    </vehicle>

    <vehicle id="74" type="DEFAULT_VEHTYPE" depart="68.00" departLane="free" departSpeed="12.3954" fromTaz="taz91" toTaz="taz94" speedFactor="0.8924" arrival="445.00">
        <route edges="D2 L2 L12 L10 L7 D7"/>
    </vehicle>

    <vehicle id="79" type="DEFAULT_VEHTYPE" depart="73.00" departLane="free" departSpeed="13.0372" fromTaz="taz91" toTaz="taz94" speedFactor="0.9386" arrival="445.00">
        <route edges="D2 L2 L12 L10 L7 D7"/>
    </vehicle>

    <vehicle id="81" type="DEFAULT_VEHTYPE" depart="75.00" departLane="free" departSpeed="12.6839" fromTaz="taz91" toTaz="taz94" speedFactor="0.9132" arrival="446.00">
        <route edges="D2 L2 L12 L10 L7 D7"/>
    </vehicle>

    <vehicle id="1874" type="DEFAULT_VEHTYPE" depart="13.00" departLane="free" departSpeed="12.5534" fromTaz="taz92" toTaz="taz94" speedFactor="1.0054" arrival="447.00">
        <route edges="D4 L4 L14 L16 L10 L7 D7"/>
    </vehicle>

    <vehicle id="76" type="DEFAULT_VEHTYPE" depart="70.00" departLane="free" departSpeed="12.9282" fromTaz="taz91" toTaz="taz94" speedFactor="1.0837" arrival="447.00">
        <route edges="D2 L2 L12 L10 L7 D7"/>
    </vehicle>

    <vehicle id="78" type="DEFAULT_VEHTYPE" depart="72.00" departLane="free" departSpeed="13.4898" fromTaz="taz91" toTaz="taz94" speedFactor="0.9712" arrival="448.00">
        <route edges="D2 L2 L12 L10 L7 D7"/>
    </vehicle>

    <vehicle id="83" type="DEFAULT_VEHTYPE" depart="77.00" departLane="free" departSpeed="11.4403" fromTaz="taz91" toTaz="taz94" speedFactor="1.1864" arrival="448.00">
        <route edges="D2 L2 L12 L10 L7 D7"/>
    </vehicle>

    <vehicle id="648" type="DEFAULT_VEHTYPE" depart="38.00" departLane="free" departSpeed="9.5063" fromTaz="taz92" toTaz="taz93" speedFactor="0.6844" arrival="457.00">
        <route edges="D4 L4 L14 L18 L5 D5"/>
    </vehicle>

    <vehicle id="653" type="DEFAULT_VEHTYPE" depart="42.00" departLane="free" departSpeed="9.3554" fromTaz="taz92" toTaz="taz93" speedFactor="1.1797" arrival="457.00">
        <route edges="D4 L4 L14 L18 L5 D5"/>
    </vehicle>

    <vehicle id="650" type="DEFAULT_VEHTYPE" depart="39.00" departLane="free" departSpeed="8.9389" fromTaz="taz92" toTaz="taz93" speedFactor="0.9139" arrival="458.00">
        <route edges="D4 L4 L14 L18 L5 D5"/>
    </vehicle>

    <vehicle id="655" type="DEFAULT_VEHTYPE" depart="45.00" departLane="free" departSpeed="10.6872" fromTaz="taz92" toTaz="taz93" speedFactor="1.0047" arrival="458.00">
        <route edges="D4 L4 L14 L18 L5 D5"/>
    </vehicle>

    <vehicle id="652" type="DEFAULT_VEHTYPE" depart="41.00" departLane="free" departSpeed="9.2123" fromTaz="taz92" toTaz="taz93" speedFactor="0.9644" arrival="459.00">
        <route edges="D4 L4 L14 L18 L5 D5"/>
    </vehicle>

    <vehicle id="657" type="DEFAULT_VEHTYPE" depart="50.00" departLane="free" departSpeed="12.6482" fromTaz="taz92" toTaz="taz93" speedFactor="0.9106" arrival="459.00">
        <route edges="D4 L4 L14 L18 L5 D5"/>
    </vehicle>

    <vehicle id="654" type="DEFAULT_VEHTYPE" depart="43.00" departLane="free" departSpeed="9.503" fromTaz="taz92" toTaz="taz93" speedFactor="1.0196" arrival="460.00">
        <route edges="D4 L4 L14 L18 L5 D5"/>
    </vehicle>
