<?xml version="1.0" encoding="UTF-8"?>

<!-- generated on 2025-01-27 11:25:53 by Eclipse SUMO sumo Version 1.21.0
<sumoConfiguration xmlns:xsi="http://www.w3.org/2001/XMLSchema-instance" xsi:noNamespaceSchemaLocation="http://sumo.dlr.de/xsd/sumoConfiguration.xsd">

    <input>
        <net-file value="C:\Users\seung\Documents\GIT\BO_UrbanMobility_Benchmark\network\quickstart\net.xml"/>
        <route-files value="C:/Users/seung/Documents/GIT/BO_UrbanMobility_Benchmark/output/quickstart_bo_vanilla/BO/bayesOpt_62_0_trips.xml"/>
        <additional-files value="C:\Users\seung\Documents\GIT\BO_UrbanMobility_Benchmark\network\quickstart\additional.xml"/>
    </input>

    <output>
        <output-prefix value="output/quickstart_bo_vanilla/BO/bayesOpt_62_0_"/>
        <vehroute-output value="routes.vehroutes.xml"/>
    </output>

    <time>
        <begin value="0"/>
        <end value="57600"/>
    </time>

    <processing>
        <ignore-route-errors value="true"/>
    </processing>

    <report>
        <verbose value="true"/>
        <xml-validation value="never"/>
        <no-warnings value="true"/>
        <duration-log.statistics value="true"/>
    </report>

    <mesoscopic>
        <mesosim value="true"/>
    </mesoscopic>

    <random_number>
        <seed value="0"/>
    </random_number>

</sumoConfiguration>
-->

<routes xmlns:xsi="http://www.w3.org/2001/XMLSchema-instance" xsi:noNamespaceSchemaLocation="http://sumo.dlr.de/xsd/routes_file.xsd">
    <vehicle id="306" type="DEFAULT_VEHTYPE" depart="1.00" departLane="free" departSpeed="15.5054" fromTaz="taz92" toTaz="taz94" speedFactor="1.1163" arrival="321.00">
        <route edges="D4 L4 L14 L16 L10 L7 D7"/>
    </vehicle>

    <vehicle id="309" type="DEFAULT_VEHTYPE" depart="2.00" departLane="free" departSpeed="12.577" fromTaz="taz92" toTaz="taz94" speedFactor="1.1558" arrival="332.00">
        <route edges="D4 L4 L14 L16 L10 L7 D7"/>
    </vehicle>

    <vehicle id="0" type="DEFAULT_VEHTYPE" depart="1.00" departLane="free" departSpeed="14.5623" fromTaz="taz91" toTaz="taz93" speedFactor="1.0484" arrival="341.00">
        <route edges="D2 L2 L12 L15 L18 L5 D5"/>
    </vehicle>

    <vehicle id="307" type="DEFAULT_VEHTYPE" depart="1.00" departLane="free" departSpeed="13.7306" fromTaz="taz92" toTaz="taz94" speedFactor="1.0300" arrival="348.00">
        <route edges="D4 L4 L14 L16 L10 L7 D7"/>
    </vehicle>

    <vehicle id="308" type="DEFAULT_VEHTYPE" depart="2.00" departLane="free" departSpeed="14.0509" fromTaz="taz92" toTaz="taz94" speedFactor="1.0153" arrival="354.00">
        <route edges="D4 L4 L14 L16 L10 L7 D7"/>
    </vehicle>

    <vehicle id="311" type="DEFAULT_VEHTYPE" depart="4.00" departLane="free" departSpeed="10.8085" fromTaz="taz92" toTaz="taz94" speedFactor="1.0541" arrival="391.00">
        <route edges="D4 L4 L14 L16 L10 L7 D7"/>
    </vehicle>

    <vehicle id="1" type="DEFAULT_VEHTYPE" depart="2.00" departLane="free" departSpeed="12.2663" fromTaz="taz91" toTaz="taz93" speedFactor="0.8831" arrival="406.00">
        <route edges="D2 L2 L12 L15 L18 L5 D5"/>
    </vehicle>

    <vehicle id="2" type="DEFAULT_VEHTYPE" depart="3.00" departLane="free" departSpeed="12.5219" fromTaz="taz91" toTaz="taz93" speedFactor="0.9454" arrival="406.00">
        <route edges="D2 L2 L12 L15 L18 L5 D5"/>
    </vehicle>

    <vehicle id="3" type="DEFAULT_VEHTYPE" depart="4.00" departLane="free" departSpeed="12.7877" fromTaz="taz91" toTaz="taz93" speedFactor="1.2679" arrival="407.00">
        <route edges="D2 L2 L12 L15 L18 L5 D5"/>
    </vehicle>

    <vehicle id="4" type="DEFAULT_VEHTYPE" depart="5.00" departLane="free" departSpeed="12.9433" fromTaz="taz91" toTaz="taz93" speedFactor="0.9319" arrival="408.00">
        <route edges="D2 L2 L12 L15 L18 L5 D5"/>
    </vehicle>

    <vehicle id="5" type="DEFAULT_VEHTYPE" depart="6.00" departLane="free" departSpeed="13.2275" fromTaz="taz91" toTaz="taz93" speedFactor="1.0410" arrival="408.00">
        <route edges="D2 L2 L12 L15 L18 L5 D5"/>
    </vehicle>

    <vehicle id="6" type="DEFAULT_VEHTYPE" depart="7.00" departLane="free" departSpeed="13.5245" fromTaz="taz91" toTaz="taz93" speedFactor="1.1076" arrival="409.00">
        <route edges="D2 L2 L12 L15 L18 L5 D5"/>
    </vehicle>

    <vehicle id="7" type="DEFAULT_VEHTYPE" depart="8.00" departLane="free" departSpeed="13.8351" fromTaz="taz91" toTaz="taz93" speedFactor="1.1831" arrival="409.00">
        <route edges="D2 L2 L12 L15 L18 L5 D5"/>
    </vehicle>

    <vehicle id="9" type="DEFAULT_VEHTYPE" depart="10.00" departLane="free" departSpeed="10.591" fromTaz="taz91" toTaz="taz93" speedFactor="0.9772" arrival="417.00">
        <route edges="D2 L2 L12 L15 L18 L5 D5"/>
    </vehicle>

    <vehicle id="11" type="DEFAULT_VEHTYPE" depart="12.00" departLane="free" departSpeed="10.9769" fromTaz="taz91" toTaz="taz93" speedFactor="1.1904" arrival="417.00">
        <route edges="D2 L2 L12 L15 L18 L5 D5"/>
    </vehicle>

    <vehicle id="313" type="DEFAULT_VEHTYPE" depart="5.00" departLane="free" departSpeed="10.0806" fromTaz="taz92" toTaz="taz94" speedFactor="0.9451" arrival="433.00">
        <route edges="D4 L4 L14 L16 L10 L7 D7"/>
    </vehicle>

    <vehicle id="310" type="DEFAULT_VEHTYPE" depart="3.00" departLane="free" departSpeed="10.6175" fromTaz="taz92" toTaz="taz94" speedFactor="0.7644" arrival="470.00">
        <route edges="D4 L4 L14 L16 L10 L7 D7"/>
    </vehicle>

    <vehicle id="315" type="DEFAULT_VEHTYPE" depart="8.00" departLane="free" departSpeed="11.6442" fromTaz="taz92" toTaz="taz94" speedFactor="1.0377" arrival="470.00">
        <route edges="D4 L4 L14 L16 L10 L7 D7"/>
    </vehicle>

    <vehicle id="312" type="DEFAULT_VEHTYPE" depart="4.00" departLane="free" departSpeed="9.9147" fromTaz="taz92" toTaz="taz94" speedFactor="1.1255" arrival="471.00">
        <route edges="D4 L4 L14 L16 L10 L7 D7"/>
    </vehicle>

    <vehicle id="316" type="DEFAULT_VEHTYPE" depart="9.00" departLane="free" departSpeed="11.8737" fromTaz="taz92" toTaz="taz94" speedFactor="1.0571" arrival="471.00">
        <route edges="D4 L4 L14 L16 L10 L7 D7"/>
    </vehicle>

    <vehicle id="314" type="DEFAULT_VEHTYPE" depart="5.00" departLane="free" departSpeed="9.2989" fromTaz="taz92" toTaz="taz94" speedFactor="0.9865" arrival="472.00">
        <route edges="D4 L4 L14 L16 L10 L7 D7"/>
    </vehicle>

    <vehicle id="318" type="DEFAULT_VEHTYPE" depart="10.00" departLane="free" departSpeed="9.2807" fromTaz="taz92" toTaz="taz94" speedFactor="0.9386" arrival="472.00">
        <route edges="D4 L4 L14 L16 L10 L7 D7"/>
    </vehicle>

    <vehicle id="320" type="DEFAULT_VEHTYPE" depart="14.00" departLane="free" departSpeed="11.8441" fromTaz="taz92" toTaz="taz94" speedFactor="1.0054" arrival="473.00">
        <route edges="D4 L4 L14 L16 L10 L7 D7"/>
    </vehicle>

    <vehicle id="322" type="DEFAULT_VEHTYPE" depart="15.00" departLane="free" departSpeed="10.9757" fromTaz="taz92" toTaz="taz94" speedFactor="1.0859" arrival="473.00">
        <route edges="D4 L4 L14 L16 L10 L7 D7"/>
    </vehicle>

    <vehicle id="8" type="DEFAULT_VEHTYPE" depart="9.00" departLane="free" departSpeed="10.4078" fromTaz="taz91" toTaz="taz93" speedFactor="0.7493" arrival="485.00">
        <route edges="D2 L2 L12 L15 L18 L5 D5"/>
    </vehicle>

    <vehicle id="10" type="DEFAULT_VEHTYPE" depart="11.00" departLane="free" departSpeed="10.7805" fromTaz="taz91" toTaz="taz93" speedFactor="1.0536" arrival="486.00">
        <route edges="D2 L2 L12 L15 L18 L5 D5"/>
    </vehicle>

    <vehicle id="13" type="DEFAULT_VEHTYPE" depart="14.00" departLane="free" departSpeed="11.3921" fromTaz="taz91" toTaz="taz93" speedFactor="0.8811" arrival="486.00">
        <route edges="D2 L2 L12 L15 L18 L5 D5"/>
    </vehicle>

    <vehicle id="12" type="DEFAULT_VEHTYPE" depart="13.00" departLane="free" departSpeed="11.1807" fromTaz="taz91" toTaz="taz93" speedFactor="1.0297" arrival="487.00">
        <route edges="D2 L2 L12 L15 L18 L5 D5"/>
    </vehicle>

    <vehicle id="15" type="DEFAULT_VEHTYPE" depart="16.00" departLane="free" departSpeed="11.8399" fromTaz="taz91" toTaz="taz93" speedFactor="0.9081" arrival="487.00">
        <route edges="D2 L2 L12 L15 L18 L5 D5"/>
    </vehicle>

    <vehicle id="14" type="DEFAULT_VEHTYPE" depart="15.00" departLane="free" departSpeed="11.6117" fromTaz="taz91" toTaz="taz93" speedFactor="0.8892" arrival="488.00">
        <route edges="D2 L2 L12 L15 L18 L5 D5"/>
    </vehicle>

    <vehicle id="17" type="DEFAULT_VEHTYPE" depart="19.00" departLane="free" departSpeed="12.0077" fromTaz="taz91" toTaz="taz93" speedFactor="0.8645" arrival="488.00">
        <route edges="D2 L2 L12 L15 L18 L5 D5"/>
    </vehicle>

    <vehicle id="16" type="DEFAULT_VEHTYPE" depart="17.00" departLane="free" departSpeed="12.0773" fromTaz="taz91" toTaz="taz93" speedFactor="1.1814" arrival="489.00">
        <route edges="D2 L2 L12 L15 L18 L5 D5"/>
    </vehicle>

    <vehicle id="19" type="DEFAULT_VEHTYPE" depart="21.00" departLane="free" departSpeed="12.5063" fromTaz="taz91" toTaz="taz93" speedFactor="0.9208" arrival="489.00">
        <route edges="D2 L2 L12 L15 L18 L5 D5"/>
    </vehicle>

    <vehicle id="18" type="DEFAULT_VEHTYPE" depart="20.00" departLane="free" departSpeed="12.2519" fromTaz="taz91" toTaz="taz93" speedFactor="1.1112" arrival="490.00">
        <route edges="D2 L2 L12 L15 L18 L5 D5"/>
    </vehicle>

    <vehicle id="21" type="DEFAULT_VEHTYPE" depart="22.00" departLane="free" departSpeed="8.8082" fromTaz="taz91" toTaz="taz93" speedFactor="0.9139" arrival="491.00">
        <route edges="D2 L2 L12 L15 L18 L5 D5"/>
    </vehicle>

    <vehicle id="23" type="DEFAULT_VEHTYPE" depart="24.00" departLane="free" departSpeed="9.0736" fromTaz="taz91" toTaz="taz93" speedFactor="1.0196" arrival="491.00">
        <route edges="D2 L2 L12 L15 L18 L5 D5"/>
    </vehicle>

    <vehicle id="25" type="DEFAULT_VEHTYPE" depart="26.00" departLane="free" departSpeed="9.3554" fromTaz="taz91" toTaz="taz93" speedFactor="1.0458" arrival="492.00">
        <route edges="D2 L2 L12 L15 L18 L5 D5"/>
    </vehicle>

    <vehicle id="27" type="DEFAULT_VEHTYPE" depart="29.00" departLane="free" departSpeed="10.6872" fromTaz="taz91" toTaz="taz93" speedFactor="1.1094" arrival="492.00">
        <route edges="D2 L2 L12 L15 L18 L5 D5"/>
    </vehicle>

    <vehicle id="317" type="DEFAULT_VEHTYPE" depart="10.00" departLane="free" departSpeed="10.0591" fromTaz="taz92" toTaz="taz94" speedFactor="0.7242" arrival="503.00">
        <route edges="D4 L4 L14 L16 L10 L7 D7"/>
    </vehicle>

    <vehicle id="324" type="DEFAULT_VEHTYPE" depart="17.00" departLane="free" departSpeed="11.3908" fromTaz="taz92" toTaz="taz94" speedFactor="1.0350" arrival="503.00">
        <route edges="D4 L4 L14 L16 L10 L7 D7"/>
    </vehicle>

    <vehicle id="319" type="DEFAULT_VEHTYPE" depart="13.00" departLane="free" departSpeed="11.6158" fromTaz="taz92" toTaz="taz94" speedFactor="0.8853" arrival="504.00">
        <route edges="D4 L4 L14 L16 L10 L7 D7"/>
    </vehicle>

    <vehicle id="321" type="DEFAULT_VEHTYPE" depart="15.00" departLane="free" departSpeed="12.0817" fromTaz="taz92" toTaz="taz94" speedFactor="0.9408" arrival="504.00">
        <route edges="D4 L4 L14 L16 L10 L7 D7"/>
    </vehicle>

    <vehicle id="323" type="DEFAULT_VEHTYPE" depart="16.00" departLane="free" departSpeed="11.1794" fromTaz="taz92" toTaz="taz94" speedFactor="1.0201" arrival="505.00">
        <route edges="D4 L4 L14 L16 L10 L7 D7"/>
    </vehicle>

    <vehicle id="326" type="DEFAULT_VEHTYPE" depart="20.00" departLane="free" departSpeed="11.7051" fromTaz="taz92" toTaz="taz94" speedFactor="0.8427" arrival="505.00">
        <route edges="D4 L4 L14 L16 L10 L7 D7"/>
    </vehicle>

    <vehicle id="328" type="DEFAULT_VEHTYPE" depart="22.00" departLane="free" departSpeed="12.1788" fromTaz="taz92" toTaz="taz94" speedFactor="1.1311" arrival="506.00">
        <route edges="D4 L4 L14 L16 L10 L7 D7"/>
    </vehicle>

    <vehicle id="325" type="DEFAULT_VEHTYPE" depart="18.00" departLane="free" departSpeed="11.6104" fromTaz="taz92" toTaz="taz94" speedFactor="1.1519" arrival="507.00">
        <route edges="D4 L4 L14 L16 L10 L7 D7"/>
    </vehicle>

    <vehicle id="330" type="DEFAULT_VEHTYPE" depart="24.00" departLane="free" departSpeed="12.692" fromTaz="taz92" toTaz="taz94" speedFactor="0.9450" arrival="507.00">
        <route edges="D4 L4 L14 L16 L10 L7 D7"/>
    </vehicle>

    <vehicle id="327" type="DEFAULT_VEHTYPE" depart="21.00" departLane="free" departSpeed="11.9374" fromTaz="taz92" toTaz="taz94" speedFactor="0.9860" arrival="508.00">
        <route edges="D4 L4 L14 L16 L10 L7 D7"/>
    </vehicle>

    <vehicle id="332" type="DEFAULT_VEHTYPE" depart="25.00" departLane="free" departSpeed="10.6417" fromTaz="taz92" toTaz="taz94" speedFactor="1.0079" arrival="508.00">
        <route edges="D4 L4 L14 L16 L10 L7 D7"/>
    </vehicle>

    <vehicle id="329" type="DEFAULT_VEHTYPE" depart="23.00" departLane="free" departSpeed="12.4301" fromTaz="taz92" toTaz="taz94" speedFactor="1.0504" arrival="509.00">
        <route edges="D4 L4 L14 L16 L10 L7 D7"/>
    </vehicle>

    <vehicle id="334" type="DEFAULT_VEHTYPE" depart="27.00" departLane="free" departSpeed="11.0314" fromTaz="taz92" toTaz="taz94" speedFactor="0.8792" arrival="509.00">
        <route edges="D4 L4 L14 L16 L10 L7 D7"/>
    </vehicle>

    <vehicle id="331" type="DEFAULT_VEHTYPE" depart="25.00" departLane="free" departSpeed="11.6782" fromTaz="taz92" toTaz="taz94" speedFactor="0.8408" arrival="510.00">
        <route edges="D4 L4 L14 L16 L10 L7 D7"/>
    </vehicle>

    <vehicle id="335" type="DEFAULT_VEHTYPE" depart="29.00" departLane="free" departSpeed="11.7744" fromTaz="taz92" toTaz="taz94" speedFactor="0.8477" arrival="510.00">
        <route edges="D4 L4 L14 L16 L10 L7 D7"/>
    </vehicle>

    <vehicle id="333" type="DEFAULT_VEHTYPE" depart="26.00" departLane="free" departSpeed="10.8331" fromTaz="taz92" toTaz="taz94" speedFactor="0.9254" arrival="511.00">
        <route edges="D4 L4 L14 L16 L10 L7 D7"/>
    </vehicle>

    <vehicle id="337" type="DEFAULT_VEHTYPE" depart="31.00" departLane="free" departSpeed="10.5798" fromTaz="taz92" toTaz="taz94" speedFactor="0.9043" arrival="512.00">
        <route edges="D4 L4 L14 L16 L10 L7 D7"/>
    </vehicle>

    <vehicle id="336" type="DEFAULT_VEHTYPE" depart="30.00" departLane="free" departSpeed="10.3967" fromTaz="taz92" toTaz="taz94" speedFactor="0.7485" arrival="514.00">
        <route edges="D4 L4 L14 L16 L10 L7 D7"/>
    </vehicle>

    <vehicle id="338" type="DEFAULT_VEHTYPE" depart="32.00" departLane="free" departSpeed="10.7689" fromTaz="taz92" toTaz="taz94" speedFactor="0.9275" arrival="515.00">
        <route edges="D4 L4 L14 L16 L10 L7 D7"/>
    </vehicle>

    <vehicle id="339" type="DEFAULT_VEHTYPE" depart="32.00" departLane="free" departSpeed="9.8814" fromTaz="taz92" toTaz="taz94" speedFactor="0.9522" arrival="515.00">
        <route edges="D4 L4 L14 L16 L10 L7 D7"/>
    </vehicle>

    <vehicle id="340" type="DEFAULT_VEHTYPE" depart="34.00" departLane="free" departSpeed="11.1682" fromTaz="taz92" toTaz="taz94" speedFactor="0.8826" arrival="516.00">
        <route edges="D4 L4 L14 L16 L10 L7 D7"/>
    </vehicle>

    <vehicle id="341" type="DEFAULT_VEHTYPE" depart="35.00" departLane="free" departSpeed="11.3792" fromTaz="taz92" toTaz="taz94" speedFactor="1.0932" arrival="516.00">
        <route edges="D4 L4 L14 L16 L10 L7 D7"/>
    </vehicle>

    <vehicle id="343" type="DEFAULT_VEHTYPE" depart="37.00" departLane="free" departSpeed="11.8259" fromTaz="taz92" toTaz="taz94" speedFactor="0.9461" arrival="517.00">
        <route edges="D4 L4 L14 L16 L10 L7 D7"/>
    </vehicle>

    <vehicle id="342" type="DEFAULT_VEHTYPE" depart="36.00" departLane="free" departSpeed="11.5982" fromTaz="taz92" toTaz="taz94" speedFactor="1.2194" arrival="518.00">
        <route edges="D4 L4 L14 L16 L10 L7 D7"/>
    </vehicle>

    <vehicle id="345" type="DEFAULT_VEHTYPE" depart="40.00" departLane="free" departSpeed="12.8883" fromTaz="taz92" toTaz="taz94" speedFactor="0.9279" arrival="518.00">
        <route edges="D4 L4 L14 L16 L10 L7 D7"/>
    </vehicle>

    <vehicle id="344" type="DEFAULT_VEHTYPE" depart="38.00" departLane="free" departSpeed="11.2759" fromTaz="taz92" toTaz="taz94" speedFactor="0.8118" arrival="520.00">
        <route edges="D4 L4 L14 L16 L10 L7 D7"/>
    </vehicle>

    <vehicle id="347" type="DEFAULT_VEHTYPE" depart="42.00" departLane="free" departSpeed="13.4644" fromTaz="taz92" toTaz="taz94" speedFactor="1.1797" arrival="520.00">
        <route edges="D4 L4 L14 L16 L10 L7 D7"/>
    </vehicle>

    <vehicle id="346" type="DEFAULT_VEHTYPE" depart="41.00" departLane="free" departSpeed="13.17" fromTaz="taz92" toTaz="taz94" speedFactor="0.9840" arrival="521.00">
        <route edges="D4 L4 L14 L16 L10 L7 D7"/>
    </vehicle>

    <vehicle id="349" type="DEFAULT_VEHTYPE" depart="43.00" departLane="free" departSpeed="10.4734" fromTaz="taz92" toTaz="taz94" speedFactor="1.0146" arrival="521.00">
        <route edges="D4 L4 L14 L16 L10 L7 D7"/>
    </vehicle>

    <vehicle id="348" type="DEFAULT_VEHTYPE" depart="43.00" departLane="free" departSpeed="11.4758" fromTaz="taz92" toTaz="taz94" speedFactor="0.8262" arrival="522.00">
        <route edges="D4 L4 L14 L16 L10 L7 D7"/>
    </vehicle>

    <vehicle id="350" type="DEFAULT_VEHTYPE" depart="44.00" departLane="free" departSpeed="10.6587" fromTaz="taz92" toTaz="taz94" speedFactor="1.0326" arrival="523.00">
        <route edges="D4 L4 L14 L16 L10 L7 D7"/>
    </vehicle>

    <vehicle id="351" type="DEFAULT_VEHTYPE" depart="45.00" departLane="free" departSpeed="10.8507" fromTaz="taz92" toTaz="taz94" speedFactor="0.9106" arrival="523.00">
        <route edges="D4 L4 L14 L16 L10 L7 D7"/>
    </vehicle>

    <vehicle id="353" type="DEFAULT_VEHTYPE" depart="47.00" departLane="free" departSpeed="11.2562" fromTaz="taz92" toTaz="taz94" speedFactor="0.8786" arrival="524.00">
        <route edges="D4 L4 L14 L16 L10 L7 D7"/>
    </vehicle>

    <vehicle id="352" type="DEFAULT_VEHTYPE" depart="46.00" departLane="free" departSpeed="11.0497" fromTaz="taz92" toTaz="taz94" speedFactor="1.0494" arrival="525.00">
        <route edges="D4 L4 L14 L16 L10 L7 D7"/>
    </vehicle>

    <vehicle id="355" type="DEFAULT_VEHTYPE" depart="49.00" departLane="free" departSpeed="11.6932" fromTaz="taz92" toTaz="taz94" speedFactor="1.1827" arrival="525.00">
        <route edges="D4 L4 L14 L16 L10 L7 D7"/>
    </vehicle>

    <vehicle id="354" type="DEFAULT_VEHTYPE" depart="48.00" departLane="free" departSpeed="11.4705" fromTaz="taz92" toTaz="taz94" speedFactor="1.2156" arrival="526.00">
        <route edges="D4 L4 L14 L16 L10 L7 D7"/>
    </vehicle>

    <vehicle id="357" type="DEFAULT_VEHTYPE" depart="52.00" departLane="free" departSpeed="13.8504" fromTaz="taz92" toTaz="taz94" speedFactor="1.0517" arrival="526.00">
        <route edges="D4 L4 L14 L16 L10 L7 D7"/>
    </vehicle>

    <vehicle id="356" type="DEFAULT_VEHTYPE" depart="50.00" departLane="free" departSpeed="11.9246" fromTaz="taz92" toTaz="taz94" speedFactor="1.1006" arrival="527.00">
        <route edges="D4 L4 L14 L16 L10 L7 D7"/>
    </vehicle>

    <vehicle id="359" type="DEFAULT_VEHTYPE" depart="54.00" departLane="free" departSpeed="14.1761" fromTaz="taz92" toTaz="taz94" speedFactor="1.0206" arrival="527.00">
        <route edges="D4 L4 L14 L16 L10 L7 D7"/>
    </vehicle>

    <vehicle id="358" type="DEFAULT_VEHTYPE" depart="53.00" departLane="free" departSpeed="14.1764" fromTaz="taz92" toTaz="taz94" speedFactor="1.1377" arrival="528.00">
        <route edges="D4 L4 L14 L16 L10 L7 D7"/>
    </vehicle>

    <vehicle id="361" type="DEFAULT_VEHTYPE" depart="56.00" departLane="free" departSpeed="13.8754" fromTaz="taz92" toTaz="taz94" speedFactor="1.0299" arrival="528.00">
        <route edges="D4 L4 L14 L16 L10 L7 D7"/>
    </vehicle>

    <vehicle id="360" type="DEFAULT_VEHTYPE" depart="55.00" departLane="free" departSpeed="13.5622" fromTaz="taz92" toTaz="taz94" speedFactor="0.9764" arrival="529.00">
        <route edges="D4 L4 L14 L16 L10 L7 D7"/>
    </vehicle>

    <vehicle id="363" type="DEFAULT_VEHTYPE" depart="57.00" departLane="free" departSpeed="12.6984" fromTaz="taz92" toTaz="taz94" speedFactor="0.9236" arrival="530.00">
        <route edges="D4 L4 L14 L16 L10 L7 D7"/>
    </vehicle>

    <vehicle id="362" type="DEFAULT_VEHTYPE" depart="56.00" departLane="free" departSpeed="12.4363" fromTaz="taz92" toTaz="taz94" speedFactor="1.0351" arrival="531.00">
        <route edges="D4 L4 L14 L16 L10 L7 D7"/>
    </vehicle>

    <vehicle id="365" type="DEFAULT_VEHTYPE" depart="59.00" departLane="free" departSpeed="12.8189" fromTaz="taz92" toTaz="taz94" speedFactor="1.0756" arrival="531.00">
        <route edges="D4 L4 L14 L16 L10 L7 D7"/>
    </vehicle>

    <vehicle id="364" type="DEFAULT_VEHTYPE" depart="58.00" departLane="free" departSpeed="12.5518" fromTaz="taz92" toTaz="taz94" speedFactor="0.9037" arrival="533.00">
        <route edges="D4 L4 L14 L16 L10 L7 D7"/>
    </vehicle>

    <vehicle id="367" type="DEFAULT_VEHTYPE" depart="61.00" departLane="free" departSpeed="13.3887" fromTaz="taz92" toTaz="taz94" speedFactor="1.0131" arrival="533.00">
        <route edges="D4 L4 L14 L16 L10 L7 D7"/>
    </vehicle>

    <vehicle id="366" type="DEFAULT_VEHTYPE" depart="60.00" departLane="free" departSpeed="13.0976" fromTaz="taz92" toTaz="taz94" speedFactor="1.1684" arrival="534.00">
        <route edges="D4 L4 L14 L16 L10 L7 D7"/>
    </vehicle>

    <vehicle id="368" type="DEFAULT_VEHTYPE" depart="62.00" departLane="free" departSpeed="13.693" fromTaz="taz92" toTaz="taz94" speedFactor="1.1640" arrival="535.00">
        <route edges="D4 L4 L14 L16 L10 L7 D7"/>
    </vehicle>

    <vehicle id="369" type="DEFAULT_VEHTYPE" depart="63.00" departLane="free" departSpeed="14.0115" fromTaz="taz92" toTaz="taz94" speedFactor="1.2400" arrival="535.00">
        <route edges="D4 L4 L14 L16 L10 L7 D7"/>
    </vehicle>

    <vehicle id="370" type="DEFAULT_VEHTYPE" depart="64.00" departLane="free" departSpeed="13.3547" fromTaz="taz92" toTaz="taz94" speedFactor="0.9615" arrival="536.00">
        <route edges="D4 L4 L14 L16 L10 L7 D7"/>
    </vehicle>

    <vehicle id="371" type="DEFAULT_VEHTYPE" depart="65.00" departLane="free" departSpeed="13.6575" fromTaz="taz92" toTaz="taz94" speedFactor="1.0959" arrival="536.00">
        <route edges="D4 L4 L14 L16 L10 L7 D7"/>
    </vehicle>

    <vehicle id="373" type="DEFAULT_VEHTYPE" depart="66.00" departLane="free" departSpeed="12.5156" fromTaz="taz92" toTaz="taz94" speedFactor="0.9811" arrival="537.00">
        <route edges="D4 L4 L14 L16 L10 L7 D7"/>
    </vehicle>

    <vehicle id="372" type="DEFAULT_VEHTYPE" depart="65.00" departLane="free" departSpeed="12.2609" fromTaz="taz92" toTaz="taz94" speedFactor="1.0661" arrival="538.00">
        <route edges="D4 L4 L14 L16 L10 L7 D7"/>
    </vehicle>

    <vehicle id="375" type="DEFAULT_VEHTYPE" depart="68.00" departLane="free" departSpeed="13.0582" fromTaz="taz92" toTaz="taz94" speedFactor="1.2173" arrival="538.00">
        <route edges="D4 L4 L14 L16 L10 L7 D7"/>
    </vehicle>

    <vehicle id="374" type="DEFAULT_VEHTYPE" depart="67.00" departLane="free" departSpeed="12.7812" fromTaz="taz92" toTaz="taz94" speedFactor="1.0918" arrival="539.00">
        <route edges="D4 L4 L14 L16 L10 L7 D7"/>
    </vehicle>

    <vehicle id="377" type="DEFAULT_VEHTYPE" depart="70.00" departLane="free" departSpeed="13.65" fromTaz="taz92" toTaz="taz94" speedFactor="1.1126" arrival="539.00">
        <route edges="D4 L4 L14 L16 L10 L7 D7"/>
    </vehicle>

    <vehicle id="376" type="DEFAULT_VEHTYPE" depart="69.00" departLane="free" departSpeed="13.3476" fromTaz="taz92" toTaz="taz94" speedFactor="1.0072" arrival="540.00">
        <route edges="D4 L4 L14 L16 L10 L7 D7"/>
    </vehicle>

    <vehicle id="379" type="DEFAULT_VEHTYPE" depart="72.00" departLane="free" departSpeed="13.8344" fromTaz="taz92" toTaz="taz94" speedFactor="0.9960" arrival="541.00">
        <route edges="D4 L4 L14 L16 L10 L7 D7"/>
    </vehicle>

    <vehicle id="378" type="DEFAULT_VEHTYPE" depart="71.00" departLane="free" departSpeed="13.5372" fromTaz="taz92" toTaz="taz94" speedFactor="0.9746" arrival="542.00">
        <route edges="D4 L4 L14 L16 L10 L7 D7"/>
    </vehicle>

    <vehicle id="20" type="DEFAULT_VEHTYPE" depart="22.00" departLane="free" departSpeed="9.5063" fromTaz="taz91" toTaz="taz93" speedFactor="0.6844" arrival="543.00">
        <route edges="D2 L2 L12 L15 L18 L5 D5"/>
    </vehicle>

    <vehicle id="380" type="DEFAULT_VEHTYPE" depart="73.00" departLane="free" departSpeed="14.1603" fromTaz="taz92" toTaz="taz94" speedFactor="1.1380" arrival="543.00">
        <route edges="D4 L4 L14 L16 L10 L7 D7"/>
    </vehicle>

    <vehicle id="381" type="DEFAULT_VEHTYPE" depart="74.00" departLane="free" departSpeed="14.5012" fromTaz="taz92" toTaz="taz94" speedFactor="1.0646" arrival="543.00">
        <route edges="D4 L4 L14 L16 L10 L7 D7"/>
    </vehicle>

    <vehicle id="22" type="DEFAULT_VEHTYPE" depart="23.00" departLane="free" departSpeed="8.9389" fromTaz="taz91" toTaz="taz93" speedFactor="0.9644" arrival="544.00">
        <route edges="D2 L2 L12 L15 L18 L5 D5"/>
    </vehicle>

    <vehicle id="29" type="DEFAULT_VEHTYPE" depart="33.00" departLane="free" departSpeed="12.7691" fromTaz="taz91" toTaz="taz93" speedFactor="0.9193" arrival="544.00">
        <route edges="D2 L2 L12 L15 L18 L5 D5"/>
    </vehicle>

    <vehicle id="383" type="DEFAULT_VEHTYPE" depart="75.00" departLane="free" departSpeed="13.2205" fromTaz="taz92" toTaz="taz94" speedFactor="1.0387" arrival="544.00">
        <route edges="D4 L4 L14 L16 L10 L7 D7"/>
    </vehicle>

    <vehicle id="24" type="DEFAULT_VEHTYPE" depart="25.00" departLane="free" departSpeed="9.2123" fromTaz="taz91" toTaz="taz93" speedFactor="1.0047" arrival="545.00">
        <route edges="D2 L2 L12 L15 L18 L5 D5"/>
    </vehicle>

    <vehicle id="31" type="DEFAULT_VEHTYPE" depart="35.00" departLane="free" departSpeed="11.1148" fromTaz="taz91" toTaz="taz93" speedFactor="0.8002" arrival="545.00">
        <route edges="D2 L2 L12 L15 L18 L5 D5"/>
    </vehicle>

    <vehicle id="382" type="DEFAULT_VEHTYPE" depart="74.00" departLane="free" departSpeed="12.9366" fromTaz="taz92" toTaz="taz94" speedFactor="1.1812" arrival="545.00">
        <route edges="D4 L4 L14 L16 L10 L7 D7"/>
    </vehicle>

    <vehicle id="385" type="DEFAULT_VEHTYPE" depart="77.00" departLane="free" departSpeed="13.6203" fromTaz="taz92" toTaz="taz94" speedFactor="1.0210" arrival="545.00">
        <route edges="D4 L4 L14 L16 L10 L7 D7"/>
    </vehicle>

    <vehicle id="33" type="DEFAULT_VEHTYPE" depart="36.00" departLane="free" departSpeed="10.3466" fromTaz="taz91" toTaz="taz93" speedFactor="1.0508" arrival="546.00">
        <route edges="D2 L2 L12 L15 L18 L5 D5"/>
    </vehicle>

    <vehicle id="384" type="DEFAULT_VEHTYPE" depart="76.00" departLane="free" departSpeed="13.3191" fromTaz="taz92" toTaz="taz94" speedFactor="0.9589" arrival="546.00">
        <route edges="D4 L4 L14 L16 L10 L7 D7"/>
    </vehicle>

    <vehicle id="26" type="DEFAULT_VEHTYPE" depart="28.00" departLane="free" departSpeed="10.5009" fromTaz="taz91" toTaz="taz93" speedFactor="0.9096" arrival="547.00">
        <route edges="D2 L2 L12 L15 L18 L5 D5"/>
    </vehicle>

    <vehicle id="35" type="DEFAULT_VEHTYPE" depart="38.00" departLane="free" departSpeed="10.7147" fromTaz="taz91" toTaz="taz93" speedFactor="0.8786" arrival="547.00">
        <route edges="D2 L2 L12 L15 L18 L5 D5"/>
    </vehicle>

    <vehicle id="28" type="DEFAULT_VEHTYPE" depart="29.00" departLane="free" departSpeed="9.8126" fromTaz="taz91" toTaz="taz93" speedFactor="0.8955" arrival="548.00">
        <route edges="D2 L2 L12 L15 L18 L5 D5"/>
    </vehicle>

    <vehicle id="37" type="DEFAULT_VEHTYPE" depart="40.00" departLane="free" departSpeed="11.1099" fromTaz="taz91" toTaz="taz93" speedFactor="0.8502" arrival="548.00">
        <route edges="D2 L2 L12 L15 L18 L5 D5"/>
    </vehicle>

    <vehicle id="387" type="DEFAULT_VEHTYPE" depart="79.00" departLane="free" departSpeed="12.0758" fromTaz="taz92" toTaz="taz94" speedFactor="0.8694" arrival="548.00">
        <route edges="D4 L4 L14 L16 L10 L7 D7"/>
    </vehicle>

    <vehicle id="30" type="DEFAULT_VEHTYPE" depart="34.00" departLane="free" departSpeed="13.0463" fromTaz="taz91" toTaz="taz93" speedFactor="1.0994" arrival="549.00">
        <route edges="D2 L2 L12 L15 L18 L5 D5"/>
    </vehicle>

    <vehicle id="34" type="DEFAULT_VEHTYPE" depart="37.00" departLane="free" departSpeed="10.5274" fromTaz="taz91" toTaz="taz93" speedFactor="1.1257" arrival="549.00">
        <route edges="D2 L2 L12 L15 L18 L5 D5"/>
    </vehicle>

    <vehicle id="386" type="DEFAULT_VEHTYPE" depart="78.00" departLane="free" departSpeed="13.7684" fromTaz="taz92" toTaz="taz94" speedFactor="0.9913" arrival="549.00">
        <route edges="D4 L4 L14 L16 L10 L7 D7"/>
    </vehicle>

    <vehicle id="32" type="DEFAULT_VEHTYPE" depart="36.00" departLane="free" departSpeed="11.3237" fromTaz="taz91" toTaz="taz93" speedFactor="1.1259" arrival="550.00">
        <route edges="D2 L2 L12 L15 L18 L5 D5"/>
    </vehicle>

    <vehicle id="36" type="DEFAULT_VEHTYPE" depart="39.00" departLane="free" departSpeed="10.9087" fromTaz="taz91" toTaz="taz93" speedFactor="0.9012" arrival="550.00">
        <route edges="D2 L2 L12 L15 L18 L5 D5"/>
    </vehicle>

    <vehicle id="389" type="DEFAULT_VEHTYPE" depart="81.00" departLane="free" departSpeed="12.5802" fromTaz="taz92" toTaz="taz94" speedFactor="0.9840" arrival="550.00">
        <route edges="D4 L4 L14 L16 L10 L7 D7"/>
    </vehicle>

    <vehicle id="391" type="DEFAULT_VEHTYPE" depart="82.00" departLane="free" departSpeed="11.605" fromTaz="taz92" toTaz="taz94" speedFactor="1.3132" arrival="550.00">
        <route edges="D4 L4 L14 L16 L10 L7 D7"/>
    </vehicle>
