<?xml version="1.0" encoding="UTF-8"?>

<!-- generated on 2025-01-29 19:12:47 by Eclipse SUMO sumo Version 1.21.0
<sumoConfiguration xmlns:xsi="http://www.w3.org/2001/XMLSchema-instance" xsi:noNamespaceSchemaLocation="http://sumo.dlr.de/xsd/sumoConfiguration.xsd">

    <input>
        <net-file value="C:\Users\seung\Documents\GIT\BO_UrbanMobility_Benchmark\network\network1_SF\net.xml"/>
        <route-files value="C:/Users/seung/Documents/GIT/BO_UrbanMobility_Benchmark/output/network1_SF_bo_vanilla/initial_search/sobol_3_trips.xml"/>
        <additional-files value="C:\Users\seung\Documents\GIT\BO_UrbanMobility_Benchmark\network\network1_SF\additional.xml"/>
    </input>

    <output>
        <output-prefix value="output/network1_SF_bo_vanilla/initial_search/sobol_3_"/>
        <vehroute-output value="routes.vehroutes.xml"/>
    </output>

    <time>
        <begin value="0"/>
        <end value="57600"/>
    </time>

    <processing>
        <ignore-route-errors value="true"/>
    </processing>

    <report>
        <verbose value="true"/>
        <xml-validation value="never"/>
        <no-warnings value="true"/>
        <duration-log.statistics value="true"/>
    </report>

    <mesoscopic>
        <mesosim value="true"/>
    </mesoscopic>

    <random_number>
        <seed value="0"/>
    </random_number>

</sumoConfiguration>
-->

<routes xmlns:xsi="http://www.w3.org/2001/XMLSchema-instance" xsi:noNamespaceSchemaLocation="http://sumo.dlr.de/xsd/routes_file.xsd">
    <vehicle id="950" type="DEFAULT_VEHTYPE" depart="1.00" departLane="free" departSpeed="22.22" fromTaz="T1_680_1" toTaz="T1_880_1" speedFactor="1.0000" arrival="919.00">
        <route edges="8926666 93631330 93631344 8927038#1 552389451 617284172 23955194 942219372 942219371 28396117 28396115#0 28396115#1 28588884 28588888 850615424 850615423 28464671 28464668 942228866 508115730 508115731 617284166 28378890 28378888#0 28378888#1 28413845 28413844 508115743 508115744 544299032 8925761 544299031 961148659 31559301 961148658 619042920 8926742 508115781 31559302 508115802 619042924 619042925 544296220 851554086 544296219 544296218#0 544296218#1 961162529 711193407 711193408 28414031 28414030 157607513 965603179 879560477 417510458 157751130 961214964 961214963 28414207 961214962 28414204 961214961 961214960 508479346 851555734 28464126#0 28464126#1 554270445 552603209 711834658 28464123 867249040 550284581 550284584 550284583 157782136#0 157782136#1 123867439#0 123867439#1 863751890 617259155 552152112 992584129"/>
    </vehicle>

    <vehicle id="951" type="DEFAULT_VEHTYPE" depart="1.00" departLane="free" departSpeed="16.5119" fromTaz="T1_680_1" toTaz="T1_880_1" speedFactor="1.0000" arrival="921.00">
        <route edges="8926666 93631330 93631344 8927038#1 552389451 617284172 23955194 942219372 942219371 28396117 28396115#0 28396115#1 28588884 28588888 850615424 850615423 28464671 28464668 942228866 508115730 508115731 617284166 28378890 28378888#0 28378888#1 28413845 28413844 508115743 508115744 544299032 8925761 544299031 961148659 31559301 961148658 619042920 8926742 508115781 31559302 508115802 619042924 619042925 544296220 851554086 544296219 544296218#0 544296218#1 961162529 711193407 711193408 28414031 28414030 157607513 965603179 879560477 417510458 157751130 961214964 961214963 28414207 961214962 28414204 961214961 961214960 508479346 851555734 28464126#0 28464126#1 554270445 552603209 711834658 28464123 867249040 550284581 550284584 550284583 157782136#0 157782136#1 123867439#0 123867439#1 863751890 617259155 552152112 992584129"/>
    </vehicle>

    <vehicle id="952" type="DEFAULT_VEHTYPE" depart="1.00" departLane="free" departSpeed="13.1369" fromTaz="T1_680_1" toTaz="T1_880_1" speedFactor="1.0000" arrival="922.00">
        <route edges="8926666 93631330 93631344 8927038#1 552389451 617284172 23955194 942219372 942219371 28396117 28396115#0 28396115#1 28588884 28588888 850615424 850615423 28464671 28464668 942228866 508115730 508115731 617284166 28378890 28378888#0 28378888#1 28413845 28413844 508115743 508115744 544299032 8925761 544299031 961148659 31559301 961148658 619042920 8926742 508115781 31559302 508115802 619042924 619042925 544296220 851554086 544296219 544296218#0 544296218#1 961162529 711193407 711193408 28414031 28414030 157607513 965603179 879560477 417510458 157751130 961214964 961214963 28414207 961214962 28414204 961214961 961214960 508479346 851555734 28464126#0 28464126#1 554270445 552603209 711834658 28464123 867249040 550284581 550284584 550284583 157782136#0 157782136#1 123867439#0 123867439#1 863751890 617259155 552152112 992584129"/>
    </vehicle>

    <vehicle id="953" type="DEFAULT_VEHTYPE" depart="6.00" departLane="free" departSpeed="22.22" fromTaz="T1_680_1" toTaz="T1_880_1" speedFactor="1.0000" arrival="924.00">
        <route edges="8926666 93631330 93631344 8927038#1 552389451 617284172 23955194 942219372 942219371 28396117 28396115#0 28396115#1 28588884 28588888 850615424 850615423 28464671 28464668 942228866 508115730 508115731 617284166 28378890 28378888#0 28378888#1 28413845 28413844 508115743 508115744 544299032 8925761 544299031 961148659 31559301 961148658 619042920 8926742 508115781 31559302 508115802 619042924 619042925 544296220 851554086 544296219 544296218#0 544296218#1 961162529 711193407 711193408 28414031 28414030 157607513 965603179 879560477 417510458 157751130 961214964 961214963 28414207 961214962 28414204 961214961 961214960 508479346 851555734 28464126#0 28464126#1 554270445 552603209 711834658 28464123 867249040 550284581 550284584 550284583 157782136#0 157782136#1 123867439#0 123867439#1 863751890 617259155 552152112 992584129"/>
    </vehicle>

    <vehicle id="954" type="DEFAULT_VEHTYPE" depart="7.00" departLane="free" departSpeed="20.1529" fromTaz="T1_680_1" toTaz="T1_880_1" speedFactor="1.0000" arrival="926.00">
        <route edges="8926666 93631330 93631344 8927038#1 552389451 617284172 23955194 942219372 942219371 28396117 28396115#0 28396115#1 28588884 28588888 850615424 850615423 28464671 28464668 942228866 508115730 508115731 617284166 28378890 28378888#0 28378888#1 28413845 28413844 508115743 508115744 544299032 8925761 544299031 961148659 31559301 961148658 619042920 8926742 508115781 31559302 508115802 619042924 619042925 544296220 851554086 544296219 544296218#0 544296218#1 961162529 711193407 711193408 28414031 28414030 157607513 965603179 879560477 417510458 157751130 961214964 961214963 28414207 961214962 28414204 961214961 961214960 508479346 851555734 28464126#0 28464126#1 554270445 552603209 711834658 28464123 867249040 550284581 550284584 550284583 157782136#0 157782136#1 123867439#0 123867439#1 863751890 617259155 552152112 992584129"/>
    </vehicle>

    <vehicle id="955" type="DEFAULT_VEHTYPE" depart="8.00" departLane="free" departSpeed="18.4372" fromTaz="T1_680_1" toTaz="T1_880_1" speedFactor="1.0000" arrival="927.00">
        <route edges="8926666 93631330 93631344 8927038#1 552389451 617284172 23955194 942219372 942219371 28396117 28396115#0 28396115#1 28588884 28588888 850615424 850615423 28464671 28464668 942228866 508115730 508115731 617284166 28378890 28378888#0 28378888#1 28413845 28413844 508115743 508115744 544299032 8925761 544299031 961148659 31559301 961148658 619042920 8926742 508115781 31559302 508115802 619042924 619042925 544296220 851554086 544296219 544296218#0 544296218#1 961162529 711193407 711193408 28414031 28414030 157607513 965603179 879560477 417510458 157751130 961214964 961214963 28414207 961214962 28414204 961214961 961214960 508479346 851555734 28464126#0 28464126#1 554270445 552603209 711834658 28464123 867249040 550284581 550284584 550284583 157782136#0 157782136#1 123867439#0 123867439#1 863751890 617259155 552152112 992584129"/>
    </vehicle>

    <vehicle id="956" type="DEFAULT_VEHTYPE" depart="11.00" departLane="free" departSpeed="22.22" fromTaz="T1_680_1" toTaz="T1_880_1" speedFactor="1.0000" arrival="930.00">
        <route edges="8926666 93631330 93631344 8927038#1 552389451 617284172 23955194 942219372 942219371 28396117 28396115#0 28396115#1 28588884 28588888 850615424 850615423 28464671 28464668 942228866 508115730 508115731 617284166 28378890 28378888#0 28378888#1 28413845 28413844 508115743 508115744 544299032 8925761 544299031 961148659 31559301 961148658 619042920 8926742 508115781 31559302 508115802 619042924 619042925 544296220 851554086 544296219 544296218#0 544296218#1 961162529 711193407 711193408 28414031 28414030 157607513 965603179 879560477 417510458 157751130 961214964 961214963 28414207 961214962 28414204 961214961 961214960 508479346 851555734 28464126#0 28464126#1 554270445 552603209 711834658 28464123 867249040 550284581 550284584 550284583 157782136#0 157782136#1 123867439#0 123867439#1 863751890 617259155 552152112 992584129"/>
    </vehicle>

    <vehicle id="957" type="DEFAULT_VEHTYPE" depart="12.00" departLane="free" departSpeed="20.1529" fromTaz="T1_680_1" toTaz="T1_880_1" speedFactor="1.0000" arrival="934.00">
        <route edges="8926666 93631330 93631344 8927038#1 552389451 617284172 23955194 942219372 942219371 28396117 28396115#0 28396115#1 28588884 28588888 850615424 850615423 28464671 28464668 942228866 508115730 508115731 617284166 28378890 28378888#0 28378888#1 28413845 28413844 508115743 508115744 544299032 8925761 544299031 961148659 31559301 961148658 619042920 8926742 508115781 31559302 508115802 619042924 619042925 544296220 851554086 544296219 544296218#0 544296218#1 961162529 711193407 711193408 28414031 28414030 157607513 965603179 879560477 417510458 157751130 961214964 961214963 28414207 961214962 28414204 961214961 961214960 508479346 851555734 28464126#0 28464126#1 554270445 552603209 711834658 28464123 867249040 550284581 550284584 550284583 157782136#0 157782136#1 123867439#0 123867439#1 863751890 617259155 552152112 992584129"/>
    </vehicle>

    <vehicle id="958" type="DEFAULT_VEHTYPE" depart="13.00" departLane="free" departSpeed="18.4372" fromTaz="T1_680_1" toTaz="T1_880_1" speedFactor="1.0000" arrival="937.00">
        <route edges="8926666 93631330 93631344 8927038#1 552389451 617284172 23955194 942219372 942219371 28396117 28396115#0 28396115#1 28588884 28588888 850615424 850615423 28464671 28464668 942228866 508115730 508115731 617284166 28378890 28378888#0 28378888#1 28413845 28413844 508115743 508115744 544299032 8925761 544299031 961148659 31559301 961148658 619042920 8926742 508115781 31559302 508115802 619042924 619042925 544296220 851554086 544296219 544296218#0 544296218#1 961162529 711193407 711193408 28414031 28414030 157607513 965603179 879560477 417510458 157751130 961214964 961214963 28414207 961214962 28414204 961214961 961214960 508479346 851555734 28464126#0 28464126#1 554270445 552603209 711834658 28464123 867249040 550284581 550284584 550284583 157782136#0 157782136#1 123867439#0 123867439#1 863751890 617259155 552152112 992584129"/>
    </vehicle>

    <vehicle id="959" type="DEFAULT_VEHTYPE" depart="16.00" departLane="free" departSpeed="22.22" fromTaz="T1_680_1" toTaz="T1_880_1" speedFactor="1.0000" arrival="940.00">
        <route edges="8926666 93631330 93631344 8927038#1 552389451 617284172 23955194 942219372 942219371 28396117 28396115#0 28396115#1 28588884 28588888 850615424 850615423 28464671 28464668 942228866 508115730 508115731 617284166 28378890 28378888#0 28378888#1 28413845 28413844 508115743 508115744 544299032 8925761 544299031 961148659 31559301 961148658 619042920 8926742 508115781 31559302 508115802 619042924 619042925 544296220 851554086 544296219 544296218#0 544296218#1 961162529 711193407 711193408 28414031 28414030 157607513 965603179 879560477 417510458 157751130 961214964 961214963 28414207 961214962 28414204 961214961 961214960 508479346 851555734 28464126#0 28464126#1 554270445 552603209 711834658 28464123 867249040 550284581 550284584 550284583 157782136#0 157782136#1 123867439#0 123867439#1 863751890 617259155 552152112 992584129"/>
    </vehicle>

    <vehicle id="960" type="DEFAULT_VEHTYPE" depart="17.00" departLane="free" departSpeed="20.1529" fromTaz="T1_680_1" toTaz="T1_880_1" speedFactor="1.0000" arrival="943.00">
        <route edges="8926666 93631330 93631344 8927038#1 552389451 617284172 23955194 942219372 942219371 28396117 28396115#0 28396115#1 28588884 28588888 850615424 850615423 28464671 28464668 942228866 508115730 508115731 617284166 28378890 28378888#0 28378888#1 28413845 28413844 508115743 508115744 544299032 8925761 544299031 961148659 31559301 961148658 619042920 8926742 508115781 31559302 508115802 619042924 619042925 544296220 851554086 544296219 544296218#0 544296218#1 961162529 711193407 711193408 28414031 28414030 157607513 965603179 879560477 417510458 157751130 961214964 961214963 28414207 961214962 28414204 961214961 961214960 508479346 851555734 28464126#0 28464126#1 554270445 552603209 711834658 28464123 867249040 550284581 550284584 550284583 157782136#0 157782136#1 123867439#0 123867439#1 863751890 617259155 552152112 992584129"/>
    </vehicle>

    <vehicle id="0" type="DEFAULT_VEHTYPE" depart="15.00" departLane="free" departSpeed="22.22" fromTaz="T1_680_1" toTaz="T1_101_1" speedFactor="1.0000" arrival="945.00">
        <route edges="8927038#1 552389451 617284172 23955194 942219372 942219371 28396117 28396115#0 28396115#1 28588884 28588888 850615424 850615423 28464671 28464668 942228866 508115730 508115731 617284166 28378890 28378888#0 28378888#1 28413845 28413844 508115743 508115744 544299032 8925761 544299031 961148659 31559301 961148658 619042920 508115775 508115805 416161449 31559309 961140460 498017747 963383469 395368981 962234287 395368977 157806285 395387091 395368986 963455395 395387096 963455394 395394468 947247192 28399274 28399272 963455396 849677309 849677308 954099453 954099452 52306304 52306306 52305996 52305981 851548985 963469980 516535357 516535356 963469981 30583337 963510312 963510311 851520671 963510313 851520670 23807074 23807076 963510262 963510274 28437207 394385109 963510275 394385106 963510276 394385111"/>
    </vehicle>

    <vehicle id="961" type="DEFAULT_VEHTYPE" depart="18.00" departLane="free" departSpeed="18.4372" fromTaz="T1_680_1" toTaz="T1_880_1" speedFactor="1.0000" arrival="946.00">
        <route edges="8926666 93631330 93631344 8927038#1 552389451 617284172 23955194 942219372 942219371 28396117 28396115#0 28396115#1 28588884 28588888 850615424 850615423 28464671 28464668 942228866 508115730 508115731 617284166 28378890 28378888#0 28378888#1 28413845 28413844 508115743 508115744 544299032 8925761 544299031 961148659 31559301 961148658 619042920 8926742 508115781 31559302 508115802 619042924 619042925 544296220 851554086 544296219 544296218#0 544296218#1 961162529 711193407 711193408 28414031 28414030 157607513 965603179 879560477 417510458 157751130 961214964 961214963 28414207 961214962 28414204 961214961 961214960 508479346 851555734 28464126#0 28464126#1 554270445 552603209 711834658 28464123 867249040 550284581 550284584 550284583 157782136#0 157782136#1 123867439#0 123867439#1 863751890 617259155 552152112 992584129"/>
    </vehicle>

    <vehicle id="962" type="DEFAULT_VEHTYPE" depart="21.00" departLane="free" departSpeed="22.22" fromTaz="T1_680_1" toTaz="T1_880_1" speedFactor="1.0000" arrival="948.00">
        <route edges="8926666 93631330 93631344 8927038#1 552389451 617284172 23955194 942219372 942219371 28396117 28396115#0 28396115#1 28588884 28588888 850615424 850615423 28464671 28464668 942228866 508115730 508115731 617284166 28378890 28378888#0 28378888#1 28413845 28413844 508115743 508115744 544299032 8925761 544299031 961148659 31559301 961148658 619042920 8926742 508115781 31559302 508115802 619042924 619042925 544296220 851554086 544296219 544296218#0 544296218#1 961162529 711193407 711193408 28414031 28414030 157607513 965603179 879560477 417510458 157751130 961214964 961214963 28414207 961214962 28414204 961214961 961214960 508479346 851555734 28464126#0 28464126#1 554270445 552603209 711834658 28464123 867249040 550284581 550284584 550284583 157782136#0 157782136#1 123867439#0 123867439#1 863751890 617259155 552152112 992584129"/>
    </vehicle>

    <vehicle id="963" type="DEFAULT_VEHTYPE" depart="22.00" departLane="free" departSpeed="20.1529" fromTaz="T1_680_1" toTaz="T1_880_1" speedFactor="1.0000" arrival="951.00">
        <route edges="8926666 93631330 93631344 8927038#1 552389451 617284172 23955194 942219372 942219371 28396117 28396115#0 28396115#1 28588884 28588888 850615424 850615423 28464671 28464668 942228866 508115730 508115731 617284166 28378890 28378888#0 28378888#1 28413845 28413844 508115743 508115744 544299032 8925761 544299031 961148659 31559301 961148658 619042920 8926742 508115781 31559302 508115802 619042924 619042925 544296220 851554086 544296219 544296218#0 544296218#1 961162529 711193407 711193408 28414031 28414030 157607513 965603179 879560477 417510458 157751130 961214964 961214963 28414207 961214962 28414204 961214961 961214960 508479346 851555734 28464126#0 28464126#1 554270445 552603209 711834658 28464123 867249040 550284581 550284584 550284583 157782136#0 157782136#1 123867439#0 123867439#1 863751890 617259155 552152112 992584129"/>
    </vehicle>

    <vehicle id="964" type="DEFAULT_VEHTYPE" depart="23.00" departLane="free" departSpeed="18.4372" fromTaz="T1_680_1" toTaz="T1_880_1" speedFactor="1.0000" arrival="954.00">
        <route edges="8926666 93631330 93631344 8927038#1 552389451 617284172 23955194 942219372 942219371 28396117 28396115#0 28396115#1 28588884 28588888 850615424 850615423 28464671 28464668 942228866 508115730 508115731 617284166 28378890 28378888#0 28378888#1 28413845 28413844 508115743 508115744 544299032 8925761 544299031 961148659 31559301 961148658 619042920 8926742 508115781 31559302 508115802 619042924 619042925 544296220 851554086 544296219 544296218#0 544296218#1 961162529 711193407 711193408 28414031 28414030 157607513 965603179 879560477 417510458 157751130 961214964 961214963 28414207 961214962 28414204 961214961 961214960 508479346 851555734 28464126#0 28464126#1 554270445 552603209 711834658 28464123 867249040 550284581 550284584 550284583 157782136#0 157782136#1 123867439#0 123867439#1 863751890 617259155 552152112 992584129"/>
    </vehicle>

    <vehicle id="965" type="DEFAULT_VEHTYPE" depart="26.00" departLane="free" departSpeed="22.22" fromTaz="T1_680_1" toTaz="T1_880_1" speedFactor="1.0000" arrival="957.00">
        <route edges="8926666 93631330 93631344 8927038#1 552389451 617284172 23955194 942219372 942219371 28396117 28396115#0 28396115#1 28588884 28588888 850615424 850615423 28464671 28464668 942228866 508115730 508115731 617284166 28378890 28378888#0 28378888#1 28413845 28413844 508115743 508115744 544299032 8925761 544299031 961148659 31559301 961148658 619042920 8926742 508115781 31559302 508115802 619042924 619042925 544296220 851554086 544296219 544296218#0 544296218#1 961162529 711193407 711193408 28414031 28414030 157607513 965603179 879560477 417510458 157751130 961214964 961214963 28414207 961214962 28414204 961214961 961214960 508479346 851555734 28464126#0 28464126#1 554270445 552603209 711834658 28464123 867249040 550284581 550284584 550284583 157782136#0 157782136#1 123867439#0 123867439#1 863751890 617259155 552152112 992584129"/>
    </vehicle>

    <vehicle id="966" type="DEFAULT_VEHTYPE" depart="27.00" departLane="free" departSpeed="20.1529" fromTaz="T1_680_1" toTaz="T1_880_1" speedFactor="1.0000" arrival="960.00">
        <route edges="8926666 93631330 93631344 8927038#1 552389451 617284172 23955194 942219372 942219371 28396117 28396115#0 28396115#1 28588884 28588888 850615424 850615423 28464671 28464668 942228866 508115730 508115731 617284166 28378890 28378888#0 28378888#1 28413845 28413844 508115743 508115744 544299032 8925761 544299031 961148659 31559301 961148658 619042920 8926742 508115781 31559302 508115802 619042924 619042925 544296220 851554086 544296219 544296218#0 544296218#1 961162529 711193407 711193408 28414031 28414030 157607513 965603179 879560477 417510458 157751130 961214964 961214963 28414207 961214962 28414204 961214961 961214960 508479346 851555734 28464126#0 28464126#1 554270445 552603209 711834658 28464123 867249040 550284581 550284584 550284583 157782136#0 157782136#1 123867439#0 123867439#1 863751890 617259155 552152112 992584129"/>
    </vehicle>

    <vehicle id="967" type="DEFAULT_VEHTYPE" depart="28.00" departLane="free" departSpeed="18.4372" fromTaz="T1_680_1" toTaz="T1_880_1" speedFactor="1.0000" arrival="963.00">
        <route edges="8926666 93631330 93631344 8927038#1 552389451 617284172 23955194 942219372 942219371 28396117 28396115#0 28396115#1 28588884 28588888 850615424 850615423 28464671 28464668 942228866 508115730 508115731 617284166 28378890 28378888#0 28378888#1 28413845 28413844 508115743 508115744 544299032 8925761 544299031 961148659 31559301 961148658 619042920 8926742 508115781 31559302 508115802 619042924 619042925 544296220 851554086 544296219 544296218#0 544296218#1 961162529 711193407 711193408 28414031 28414030 157607513 965603179 879560477 417510458 157751130 961214964 961214963 28414207 961214962 28414204 961214961 961214960 508479346 851555734 28464126#0 28464126#1 554270445 552603209 711834658 28464123 867249040 550284581 550284584 550284583 157782136#0 157782136#1 123867439#0 123867439#1 863751890 617259155 552152112 992584129"/>
    </vehicle>

    <vehicle id="968" type="DEFAULT_VEHTYPE" depart="31.00" departLane="free" departSpeed="22.22" fromTaz="T1_680_1" toTaz="T1_880_1" speedFactor="1.0000" arrival="965.00">
        <route edges="8926666 93631330 93631344 8927038#1 552389451 617284172 23955194 942219372 942219371 28396117 28396115#0 28396115#1 28588884 28588888 850615424 850615423 28464671 28464668 942228866 508115730 508115731 617284166 28378890 28378888#0 28378888#1 28413845 28413844 508115743 508115744 544299032 8925761 544299031 961148659 31559301 961148658 619042920 8926742 508115781 31559302 508115802 619042924 619042925 544296220 851554086 544296219 544296218#0 544296218#1 961162529 711193407 711193408 28414031 28414030 157607513 965603179 879560477 417510458 157751130 961214964 961214963 28414207 961214962 28414204 961214961 961214960 508479346 851555734 28464126#0 28464126#1 554270445 552603209 711834658 28464123 867249040 550284581 550284584 550284583 157782136#0 157782136#1 123867439#0 123867439#1 863751890 617259155 552152112 992584129"/>
    </vehicle>

    <vehicle id="969" type="DEFAULT_VEHTYPE" depart="32.00" departLane="free" departSpeed="20.1529" fromTaz="T1_680_1" toTaz="T1_880_1" speedFactor="1.0000" arrival="968.00">
        <route edges="8926666 93631330 93631344 8927038#1 552389451 617284172 23955194 942219372 942219371 28396117 28396115#0 28396115#1 28588884 28588888 850615424 850615423 28464671 28464668 942228866 508115730 508115731 617284166 28378890 28378888#0 28378888#1 28413845 28413844 508115743 508115744 544299032 8925761 544299031 961148659 31559301 961148658 619042920 8926742 508115781 31559302 508115802 619042924 619042925 544296220 851554086 544296219 544296218#0 544296218#1 961162529 711193407 711193408 28414031 28414030 157607513 965603179 879560477 417510458 157751130 961214964 961214963 28414207 961214962 28414204 961214961 961214960 508479346 851555734 28464126#0 28464126#1 554270445 552603209 711834658 28464123 867249040 550284581 550284584 550284583 157782136#0 157782136#1 123867439#0 123867439#1 863751890 617259155 552152112 992584129"/>
    </vehicle>

    <vehicle id="970" type="DEFAULT_VEHTYPE" depart="33.00" departLane="free" departSpeed="18.4372" fromTaz="T1_680_1" toTaz="T1_880_1" speedFactor="1.0000" arrival="971.00">
        <route edges="8926666 93631330 93631344 8927038#1 552389451 617284172 23955194 942219372 942219371 28396117 28396115#0 28396115#1 28588884 28588888 850615424 850615423 28464671 28464668 942228866 508115730 508115731 617284166 28378890 28378888#0 28378888#1 28413845 28413844 508115743 508115744 544299032 8925761 544299031 961148659 31559301 961148658 619042920 8926742 508115781 31559302 508115802 619042924 619042925 544296220 851554086 544296219 544296218#0 544296218#1 961162529 711193407 711193408 28414031 28414030 157607513 965603179 879560477 417510458 157751130 961214964 961214963 28414207 961214962 28414204 961214961 961214960 508479346 851555734 28464126#0 28464126#1 554270445 552603209 711834658 28464123 867249040 550284581 550284584 550284583 157782136#0 157782136#1 123867439#0 123867439#1 863751890 617259155 552152112 992584129"/>
    </vehicle>

    <vehicle id="971" type="DEFAULT_VEHTYPE" depart="36.00" departLane="free" departSpeed="22.22" fromTaz="T1_680_1" toTaz="T1_880_1" speedFactor="1.0000" arrival="974.00">
        <route edges="8926666 93631330 93631344 8927038#1 552389451 617284172 23955194 942219372 942219371 28396117 28396115#0 28396115#1 28588884 28588888 850615424 850615423 28464671 28464668 942228866 508115730 508115731 617284166 28378890 28378888#0 28378888#1 28413845 28413844 508115743 508115744 544299032 8925761 544299031 961148659 31559301 961148658 619042920 8926742 508115781 31559302 508115802 619042924 619042925 544296220 851554086 544296219 544296218#0 544296218#1 961162529 711193407 711193408 28414031 28414030 157607513 965603179 879560477 417510458 157751130 961214964 961214963 28414207 961214962 28414204 961214961 961214960 508479346 851555734 28464126#0 28464126#1 554270445 552603209 711834658 28464123 867249040 550284581 550284584 550284583 157782136#0 157782136#1 123867439#0 123867439#1 863751890 617259155 552152112 992584129"/>
    </vehicle>

    <vehicle id="972" type="DEFAULT_VEHTYPE" depart="37.00" departLane="free" departSpeed="20.1529" fromTaz="T1_680_1" toTaz="T1_880_1" speedFactor="1.0000" arrival="977.00">
        <route edges="8926666 93631330 93631344 8927038#1 552389451 617284172 23955194 942219372 942219371 28396117 28396115#0 28396115#1 28588884 28588888 850615424 850615423 28464671 28464668 942228866 508115730 508115731 617284166 28378890 28378888#0 28378888#1 28413845 28413844 508115743 508115744 544299032 8925761 544299031 961148659 31559301 961148658 619042920 8926742 508115781 31559302 508115802 619042924 619042925 544296220 851554086 544296219 544296218#0 544296218#1 961162529 711193407 711193408 28414031 28414030 157607513 965603179 879560477 417510458 157751130 961214964 961214963 28414207 961214962 28414204 961214961 961214960 508479346 851555734 28464126#0 28464126#1 554270445 552603209 711834658 28464123 867249040 550284581 550284584 550284583 157782136#0 157782136#1 123867439#0 123867439#1 863751890 617259155 552152112 992584129"/>
    </vehicle>

    <vehicle id="973" type="DEFAULT_VEHTYPE" depart="38.00" departLane="free" departSpeed="18.4372" fromTaz="T1_680_1" toTaz="T1_880_1" speedFactor="1.0000" arrival="980.00">
        <route edges="8926666 93631330 93631344 8927038#1 552389451 617284172 23955194 942219372 942219371 28396117 28396115#0 28396115#1 28588884 28588888 850615424 850615423 28464671 28464668 942228866 508115730 508115731 617284166 28378890 28378888#0 28378888#1 28413845 28413844 508115743 508115744 544299032 8925761 544299031 961148659 31559301 961148658 619042920 8926742 508115781 31559302 508115802 619042924 619042925 544296220 851554086 544296219 544296218#0 544296218#1 961162529 711193407 711193408 28414031 28414030 157607513 965603179 879560477 417510458 157751130 961214964 961214963 28414207 961214962 28414204 961214961 961214960 508479346 851555734 28464126#0 28464126#1 554270445 552603209 711834658 28464123 867249040 550284581 550284584 550284583 157782136#0 157782136#1 123867439#0 123867439#1 863751890 617259155 552152112 992584129"/>
    </vehicle>

    <vehicle id="1" type="DEFAULT_VEHTYPE" depart="49.00" departLane="free" departSpeed="20.6949" fromTaz="T1_680_1" toTaz="T1_101_1" speedFactor="1.0000" arrival="980.00">
        <route edges="8927038#1 552389451 617284172 23955194 942219372 942219371 28396117 28396115#0 28396115#1 28588884 28588888 850615424 850615423 28464671 28464668 942228866 508115730 508115731 617284166 28378890 28378888#0 28378888#1 28413845 28413844 508115743 508115744 544299032 8925761 544299031 961148659 31559301 961148658 619042920 508115775 508115805 416161449 31559309 961140460 498017747 963383469 395368981 962234287 395368977 157806285 395387091 395368986 963455395 395387096 963455394 395394468 947247192 28399274 28399272 963455396 849677309 849677308 954099453 954099452 52306304 52306306 52305996 52305981 851548985 963469980 516535357 516535356 963469981 30583337 963510312 963510311 851520671 963510313 851520670 23807074 23807076 963510262 963510274 28437207 394385109 963510275 394385106 963510276 394385111"/>
    </vehicle>

    <vehicle id="974" type="DEFAULT_VEHTYPE" depart="41.00" departLane="free" departSpeed="22.22" fromTaz="T1_680_1" toTaz="T1_880_1" speedFactor="1.0000" arrival="983.00">
        <route edges="8926666 93631330 93631344 8927038#1 552389451 617284172 23955194 942219372 942219371 28396117 28396115#0 28396115#1 28588884 28588888 850615424 850615423 28464671 28464668 942228866 508115730 508115731 617284166 28378890 28378888#0 28378888#1 28413845 28413844 508115743 508115744 544299032 8925761 544299031 961148659 31559301 961148658 619042920 8926742 508115781 31559302 508115802 619042924 619042925 544296220 851554086 544296219 544296218#0 544296218#1 961162529 711193407 711193408 28414031 28414030 157607513 965603179 879560477 417510458 157751130 961214964 961214963 28414207 961214962 28414204 961214961 961214960 508479346 851555734 28464126#0 28464126#1 554270445 552603209 711834658 28464123 867249040 550284581 550284584 550284583 157782136#0 157782136#1 123867439#0 123867439#1 863751890 617259155 552152112 992584129"/>
    </vehicle>

    <vehicle id="975" type="DEFAULT_VEHTYPE" depart="42.00" departLane="free" departSpeed="20.1529" fromTaz="T1_680_1" toTaz="T1_880_1" speedFactor="1.0000" arrival="985.00">