<?xml version="1.0" encoding="UTF-8"?>

<!-- generated on 2025-01-27 11:20:39 by Eclipse SUMO sumo Version 1.21.0
<sumoConfiguration xmlns:xsi="http://www.w3.org/2001/XMLSchema-instance" xsi:noNamespaceSchemaLocation="http://sumo.dlr.de/xsd/sumoConfiguration.xsd">

    <input>
        <net-file value="C:\Users\seung\Documents\GIT\BO_UrbanMobility_Benchmark\network\quickstart\net.xml"/>
        <route-files value="C:/Users/seung/Documents/GIT/BO_UrbanMobility_Benchmark/output/quickstart_bo_vanilla/initial_search/sobol_20_trips.xml"/>
        <additional-files value="C:\Users\seung\Documents\GIT\BO_UrbanMobility_Benchmark\network\quickstart\additional.xml"/>
    </input>

    <output>
        <output-prefix value="output/quickstart_bo_vanilla/initial_search/sobol_20_"/>
        <vehroute-output value="routes.vehroutes.xml"/>
    </output>

    <time>
        <begin value="0"/>
        <end value="57600"/>
    </time>

    <processing>
        <ignore-route-errors value="true"/>
    </processing>

    <report>
        <verbose value="true"/>
        <xml-validation value="never"/>
        <no-warnings value="true"/>
        <duration-log.statistics value="true"/>
    </report>

    <mesoscopic>
        <mesosim value="true"/>
    </mesoscopic>

    <random_number>
        <seed value="0"/>
    </random_number>

</sumoConfiguration>
-->

<routes xmlns:xsi="http://www.w3.org/2001/XMLSchema-instance" xsi:noNamespaceSchemaLocation="http://sumo.dlr.de/xsd/routes_file.xsd">
    <vehicle id="245" type="DEFAULT_VEHTYPE" depart="3.00" departLane="free" departSpeed="14.4134" fromTaz="taz91" toTaz="taz94" speedFactor="1.0377" arrival="281.00">
        <route edges="D2 L2 L12 L10 L7 D7"/>
    </vehicle>

    <vehicle id="246" type="DEFAULT_VEHTYPE" depart="8.00" departLane="free" departSpeed="12.1788" fromTaz="taz91" toTaz="taz94" speedFactor="0.9081" arrival="334.00">
        <route edges="D2 L2 L12 L10 L7 D7"/>
    </vehicle>

    <vehicle id="417" type="DEFAULT_VEHTYPE" depart="1.00" departLane="free" departSpeed="15.5054" fromTaz="taz92" toTaz="taz94" speedFactor="1.1163" arrival="335.00">
        <route edges="D4 L4 L14 L16 L10 L7 D7"/>
    </vehicle>

    <vehicle id="247" type="DEFAULT_VEHTYPE" depart="12.00" departLane="free" departSpeed="11.1682" fromTaz="taz91" toTaz="taz94" speedFactor="1.0458" arrival="337.00">
        <route edges="D2 L2 L12 L10 L7 D7"/>
    </vehicle>

    <vehicle id="418" type="DEFAULT_VEHTYPE" depart="1.00" departLane="free" departSpeed="13.7306" fromTaz="taz92" toTaz="taz94" speedFactor="1.0484" arrival="368.00">
        <route edges="D4 L4 L14 L16 L10 L7 D7"/>
    </vehicle>

    <vehicle id="248" type="DEFAULT_VEHTYPE" depart="18.00" departLane="free" departSpeed="12.2038" fromTaz="taz91" toTaz="taz94" speedFactor="0.8786" arrival="368.00">
        <route edges="D2 L2 L12 L10 L7 D7"/>
    </vehicle>

    <vehicle id="419" type="DEFAULT_VEHTYPE" depart="1.00" departLane="free" departSpeed="12.3198" fromTaz="taz92" toTaz="taz94" speedFactor="1.0300" arrival="369.00">
        <route edges="D4 L4 L14 L16 L10 L7 D7"/>
    </vehicle>

    <vehicle id="249" type="DEFAULT_VEHTYPE" depart="22.00" departLane="free" departSpeed="11.956" fromTaz="taz91" toTaz="taz94" speedFactor="1.1464" arrival="369.00">
        <route edges="D2 L2 L12 L10 L7 D7"/>
    </vehicle>

    <vehicle id="250" type="DEFAULT_VEHTYPE" depart="27.00" departLane="free" departSpeed="13.8754" fromTaz="taz91" toTaz="taz94" speedFactor="0.9990" arrival="370.00">
        <route edges="D2 L2 L12 L10 L7 D7"/>
    </vehicle>

    <vehicle id="251" type="DEFAULT_VEHTYPE" depart="31.00" departLane="free" departSpeed="11.8469" fromTaz="taz91" toTaz="taz94" speedFactor="0.9357" arrival="370.00">
        <route edges="D2 L2 L12 L10 L7 D7"/>
    </vehicle>

    <vehicle id="252" type="DEFAULT_VEHTYPE" depart="37.00" departLane="free" departSpeed="13.4386" fromTaz="taz91" toTaz="taz94" speedFactor="0.9675" arrival="371.00">
        <route edges="D2 L2 L12 L10 L7 D7"/>
    </vehicle>

    <vehicle id="421" type="DEFAULT_VEHTYPE" depart="1.00" departLane="free" departSpeed="10.2197" fromTaz="taz92" toTaz="taz94" speedFactor="1.1558" arrival="372.00">
        <route edges="D4 L4 L14 L16 L10 L7 D7"/>
    </vehicle>

    <vehicle id="308" type="DEFAULT_VEHTYPE" depart="2.00" departLane="free" departSpeed="9.5666" fromTaz="taz92" toTaz="taz93" speedFactor="0.7644" arrival="378.00">
        <route edges="D4 L4 L14 L18 L5 D5"/>
    </vehicle>

    <vehicle id="1" type="DEFAULT_VEHTYPE" depart="2.00" departLane="free" departSpeed="14.4404" fromTaz="taz91" toTaz="taz93" speedFactor="1.1255" arrival="378.00">
        <route edges="D2 L2 L12 L15 L18 L5 D5"/>
    </vehicle>

    <vehicle id="0" type="DEFAULT_VEHTYPE" depart="1.00" departLane="free" departSpeed="14.1024" fromTaz="taz91" toTaz="taz93" speedFactor="1.0153" arrival="379.00">
        <route edges="D2 L2 L12 L15 L18 L5 D5"/>
    </vehicle>

    <vehicle id="309" type="DEFAULT_VEHTYPE" depart="18.00" departLane="free" departSpeed="10.591" fromTaz="taz92" toTaz="taz93" speedFactor="0.9408" arrival="379.00">
        <route edges="D4 L4 L14 L18 L5 D5"/>
    </vehicle>

    <vehicle id="2" type="DEFAULT_VEHTYPE" depart="4.00" departLane="free" departSpeed="14.7667" fromTaz="taz91" toTaz="taz93" speedFactor="1.1076" arrival="380.00">
        <route edges="D2 L2 L12 L15 L18 L5 D5"/>
    </vehicle>

    <vehicle id="3" type="DEFAULT_VEHTYPE" depart="5.00" departLane="free" departSpeed="15.083" fromTaz="taz91" toTaz="taz93" speedFactor="1.0859" arrival="380.00">
        <route edges="D2 L2 L12 L15 L18 L5 D5"/>
    </vehicle>

    <vehicle id="253" type="DEFAULT_VEHTYPE" depart="41.00" departLane="free" departSpeed="11.6537" fromTaz="taz91" toTaz="taz94" speedFactor="0.9148" arrival="382.00">
        <route edges="D2 L2 L12 L10 L7 D7"/>
    </vehicle>

    <vehicle id="310" type="DEFAULT_VEHTYPE" depart="31.00" departLane="free" departSpeed="11.3135" fromTaz="taz92" toTaz="taz93" speedFactor="0.8892" arrival="383.00">
        <route edges="D4 L4 L14 L18 L5 D5"/>
    </vehicle>

    <vehicle id="254" type="DEFAULT_VEHTYPE" depart="46.00" departLane="free" departSpeed="10.3939" fromTaz="taz91" toTaz="taz94" speedFactor="0.9585" arrival="392.00">
        <route edges="D2 L2 L12 L10 L7 D7"/>
    </vehicle>

    <vehicle id="5" type="DEFAULT_VEHTYPE" depart="7.00" departLane="free" departSpeed="11.9374" fromTaz="taz91" toTaz="taz93" speedFactor="0.9450" arrival="402.00">
        <route edges="D2 L2 L12 L15 L18 L5 D5"/>
    </vehicle>

    <vehicle id="420" type="DEFAULT_VEHTYPE" depart="1.00" departLane="free" departSpeed="11.1719" fromTaz="taz92" toTaz="taz94" speedFactor="0.8831" arrival="406.00">
        <route edges="D4 L4 L14 L16 L10 L7 D7"/>
    </vehicle>

    <vehicle id="422" type="DEFAULT_VEHTYPE" depart="2.00" departLane="free" departSpeed="10.3961" fromTaz="taz92" toTaz="taz94" speedFactor="0.9454" arrival="406.00">
        <route edges="D4 L4 L14 L16 L10 L7 D7"/>
    </vehicle>

    <vehicle id="424" type="DEFAULT_VEHTYPE" depart="2.00" departLane="free" departSpeed="8.2501" fromTaz="taz92" toTaz="taz94" speedFactor="1.2679" arrival="407.00">
        <route edges="D4 L4 L14 L16 L10 L7 D7"/>
    </vehicle>

    <vehicle id="255" type="DEFAULT_VEHTYPE" depart="51.00" departLane="free" departSpeed="11.3753" fromTaz="taz91" toTaz="taz94" speedFactor="1.0095" arrival="407.00">
        <route edges="D2 L2 L12 L10 L7 D7"/>
    </vehicle>

    <vehicle id="423" type="DEFAULT_VEHTYPE" depart="2.00" departLane="free" departSpeed="8.8598" fromTaz="taz92" toTaz="taz94" speedFactor="1.0541" arrival="408.00">
        <route edges="D4 L4 L14 L16 L10 L7 D7"/>
    </vehicle>

    <vehicle id="425" type="DEFAULT_VEHTYPE" depart="8.00" departLane="free" departSpeed="13.1268" fromTaz="taz92" toTaz="taz94" speedFactor="0.9451" arrival="417.00">
        <route edges="D4 L4 L14 L16 L10 L7 D7"/>
    </vehicle>

    <vehicle id="426" type="DEFAULT_VEHTYPE" depart="9.00" departLane="free" departSpeed="12.9433" fromTaz="taz92" toTaz="taz94" speedFactor="0.9319" arrival="421.00">
        <route edges="D4 L4 L14 L16 L10 L7 D7"/>
    </vehicle>

    <vehicle id="256" type="DEFAULT_VEHTYPE" depart="57.00" departLane="free" departSpeed="10.6338" fromTaz="taz91" toTaz="taz94" speedFactor="0.7656" arrival="454.00">
        <route edges="D2 L2 L12 L10 L7 D7"/>
    </vehicle>

    <vehicle id="427" type="DEFAULT_VEHTYPE" depart="10.00" departLane="free" departSpeed="13.2275" fromTaz="taz92" toTaz="taz94" speedFactor="0.9865" arrival="455.00">
        <route edges="D4 L4 L14 L16 L10 L7 D7"/>
    </vehicle>

    <vehicle id="428" type="DEFAULT_VEHTYPE" depart="10.00" departLane="free" departSpeed="11.9133" fromTaz="taz92" toTaz="taz94" speedFactor="1.0410" arrival="456.00">
        <route edges="D4 L4 L14 L16 L10 L7 D7"/>
    </vehicle>

    <vehicle id="429" type="DEFAULT_VEHTYPE" depart="11.00" departLane="free" departSpeed="12.1536" fromTaz="taz92" toTaz="taz94" speedFactor="1.0571" arrival="456.00">
        <route edges="D4 L4 L14 L16 L10 L7 D7"/>
    </vehicle>

    <vehicle id="311" type="DEFAULT_VEHTYPE" depart="44.00" departLane="free" departSpeed="9.5063" fromTaz="taz92" toTaz="taz93" speedFactor="0.6844" arrival="465.00">
        <route edges="D4 L4 L14 L18 L5 D5"/>
    </vehicle>

    <vehicle id="4" type="DEFAULT_VEHTYPE" depart="6.00" departLane="free" departSpeed="11.7051" fromTaz="taz91" toTaz="taz93" speedFactor="0.8427" arrival="466.00">
        <route edges="D2 L2 L12 L15 L18 L5 D5"/>
    </vehicle>

    <vehicle id="312" type="DEFAULT_VEHTYPE" depart="59.00" departLane="free" departSpeed="11.2562" fromTaz="taz92" toTaz="taz93" speedFactor="0.9096" arrival="466.00">
        <route edges="D4 L4 L14 L18 L5 D5"/>
    </vehicle>

    <vehicle id="313" type="DEFAULT_VEHTYPE" depart="73.00" departLane="free" departSpeed="12.7698" fromTaz="taz92" toTaz="taz93" speedFactor="1.0351" arrival="467.00">
        <route edges="D4 L4 L14 L18 L5 D5"/>
    </vehicle>

    <vehicle id="7" type="DEFAULT_VEHTYPE" depart="10.00" departLane="free" departSpeed="11.8315" fromTaz="taz91" toTaz="taz93" speedFactor="0.8826" arrival="468.00">
        <route edges="D2 L2 L12 L15 L18 L5 D5"/>
    </vehicle>

    <vehicle id="314" type="DEFAULT_VEHTYPE" depart="86.00" departLane="free" departSpeed="12.2911" fromTaz="taz92" toTaz="taz93" speedFactor="0.9727" arrival="468.00">
        <route edges="D4 L4 L14 L18 L5 D5"/>
    </vehicle>

    <vehicle id="257" type="DEFAULT_VEHTYPE" depart="61.00" departLane="free" departSpeed="10.0786" fromTaz="taz91" toTaz="taz94" speedFactor="0.7256" arrival="468.00">
        <route edges="D2 L2 L12 L10 L7 D7"/>
    </vehicle>

    <vehicle id="9" type="DEFAULT_VEHTYPE" depart="12.00" departLane="free" departSpeed="12.3153" fromTaz="taz91" toTaz="taz93" speedFactor="1.0047" arrival="469.00">
        <route edges="D2 L2 L12 L15 L18 L5 D5"/>
    </vehicle>

    <vehicle id="258" type="DEFAULT_VEHTYPE" depart="68.00" departLane="free" departSpeed="12.4039" fromTaz="taz91" toTaz="taz94" speedFactor="1.1005" arrival="469.00">
        <route edges="D2 L2 L12 L10 L7 D7"/>
    </vehicle>

    <vehicle id="259" type="DEFAULT_VEHTYPE" depart="71.00" departLane="free" departSpeed="11.9076" fromTaz="taz91" toTaz="taz94" speedFactor="1.0024" arrival="469.00">
        <route edges="D2 L2 L12 L10 L7 D7"/>
    </vehicle>

    <vehicle id="431" type="DEFAULT_VEHTYPE" depart="13.00" departLane="free" departSpeed="10.2302" fromTaz="taz92" toTaz="taz94" speedFactor="0.9386" arrival="470.00">
        <route edges="D4 L4 L14 L16 L10 L7 D7"/>
    </vehicle>

    <vehicle id="260" type="DEFAULT_VEHTYPE" depart="77.00" departLane="free" departSpeed="12.4899" fromTaz="taz91" toTaz="taz94" speedFactor="0.8992" arrival="470.00">
        <route edges="D2 L2 L12 L10 L7 D7"/>
    </vehicle>

    <vehicle id="261" type="DEFAULT_VEHTYPE" depart="81.00" departLane="free" departSpeed="12.2309" fromTaz="taz91" toTaz="taz94" speedFactor="0.9059" arrival="471.00">
        <route edges="D2 L2 L12 L10 L7 D7"/>
    </vehicle>

    <vehicle id="262" type="DEFAULT_VEHTYPE" depart="86.00" departLane="free" departSpeed="11.3148" fromTaz="taz91" toTaz="taz94" speedFactor="0.9428" arrival="471.00">
        <route edges="D2 L2 L12 L10 L7 D7"/>
    </vehicle>

    <vehicle id="263" type="DEFAULT_VEHTYPE" depart="91.00" departLane="free" departSpeed="12.4875" fromTaz="taz91" toTaz="taz94" speedFactor="0.9244" arrival="472.00">
        <route edges="D2 L2 L12 L10 L7 D7"/>
    </vehicle>

    <vehicle id="264" type="DEFAULT_VEHTYPE" depart="96.00" departLane="free" departSpeed="10.6781" fromTaz="taz91" toTaz="taz94" speedFactor="1.1173" arrival="473.00">
        <route edges="D2 L2 L12 L10 L7 D7"/>
    </vehicle>

    <vehicle id="265" type="DEFAULT_VEHTYPE" depart="100.00" departLane="free" departSpeed="10.4877" fromTaz="taz91" toTaz="taz94" speedFactor="1.0277" arrival="473.00">
        <route edges="D2 L2 L12 L10 L7 D7"/>
    </vehicle>

    <vehicle id="433" type="DEFAULT_VEHTYPE" depart="15.00" departLane="free" departSpeed="10.5899" fromTaz="taz92" toTaz="taz94" speedFactor="0.8853" arrival="474.00">
        <route edges="D4 L4 L14 L16 L10 L7 D7"/>
    </vehicle>

    <vehicle id="266" type="DEFAULT_VEHTYPE" depart="107.00" departLane="free" departSpeed="14.1343" fromTaz="taz91" toTaz="taz94" speedFactor="1.1514" arrival="474.00">
        <route edges="D2 L2 L12 L10 L7 D7"/>
    </vehicle>

    <vehicle id="6" type="DEFAULT_VEHTYPE" depart="8.00" departLane="free" departSpeed="10.3967" fromTaz="taz91" toTaz="taz93" speedFactor="0.7485" arrival="484.00">
        <route edges="D2 L2 L12 L15 L18 L5 D5"/>
    </vehicle>

    <vehicle id="11" type="DEFAULT_VEHTYPE" depart="15.00" departLane="free" departSpeed="13.1199" fromTaz="taz91" toTaz="taz93" speedFactor="1.1377" arrival="485.00">
        <route edges="D2 L2 L12 L15 L18 L5 D5"/>
    </vehicle>

    <vehicle id="8" type="DEFAULT_VEHTYPE" depart="11.00" departLane="free" departSpeed="12.0685" fromTaz="taz91" toTaz="taz93" speedFactor="0.9279" arrival="486.00">
        <route edges="D2 L2 L12 L15 L18 L5 D5"/>
    </vehicle>

    <vehicle id="13" type="DEFAULT_VEHTYPE" depart="17.00" departLane="free" departSpeed="13.7174" fromTaz="taz91" toTaz="taz93" speedFactor="1.0131" arrival="486.00">
        <route edges="D2 L2 L12 L15 L18 L5 D5"/>
    </vehicle>

    <vehicle id="10" type="DEFAULT_VEHTYPE" depart="13.00" departLane="free" departSpeed="11.3792" fromTaz="taz91" toTaz="taz93" speedFactor="1.1094" arrival="487.00">
        <route edges="D2 L2 L12 L15 L18 L5 D5"/>
    </vehicle>

    <vehicle id="315" type="DEFAULT_VEHTYPE" depart="98.00" departLane="free" departSpeed="12.3993" fromTaz="taz92" toTaz="taz93" speedFactor="1.0387" arrival="487.00">
        <route edges="D4 L4 L14 L18 L5 D5"/>
    </vehicle>

    <vehicle id="12" type="DEFAULT_VEHTYPE" depart="16.00" departLane="free" departSpeed="13.412" fromTaz="taz91" toTaz="taz93" speedFactor="1.1259" arrival="488.00">
        <route edges="D2 L2 L12 L15 L18 L5 D5"/>
    </vehicle>

    <vehicle id="15" type="DEFAULT_VEHTYPE" depart="20.00" departLane="free" departSpeed="12.7194" fromTaz="taz91" toTaz="taz93" speedFactor="1.1126" arrival="488.00">
        <route edges="D2 L2 L12 L15 L18 L5 D5"/>
    </vehicle>

    <vehicle id="14" type="DEFAULT_VEHTYPE" depart="19.00" departLane="free" departSpeed="12.4564" fromTaz="taz91" toTaz="taz93" speedFactor="1.0661" arrival="489.00">
        <route edges="D2 L2 L12 L15 L18 L5 D5"/>
    </vehicle>

    <vehicle id="17" type="DEFAULT_VEHTYPE" depart="22.00" departLane="free" departSpeed="13.2802" fromTaz="taz91" toTaz="taz93" speedFactor="0.9913" arrival="489.00">
        <route edges="D2 L2 L12 L15 L18 L5 D5"/>
    </vehicle>

    <vehicle id="19" type="DEFAULT_VEHTYPE" depart="24.00" departLane="free" departSpeed="12.4502" fromTaz="taz91" toTaz="taz93" speedFactor="1.1611" arrival="490.00">
        <route edges="D2 L2 L12 L15 L18 L5 D5"/>
    </vehicle>

    <vehicle id="16" type="DEFAULT_VEHTYPE" depart="21.00" departLane="free" departSpeed="12.9938" fromTaz="taz91" toTaz="taz93" speedFactor="1.0646" arrival="491.00">
        <route edges="D2 L2 L12 L15 L18 L5 D5"/>
    </vehicle>

    <vehicle id="20" type="DEFAULT_VEHTYPE" depart="26.00" departLane="free" departSpeed="14.5645" fromTaz="taz91" toTaz="taz93" speedFactor="1.0535" arrival="491.00">
        <route edges="D2 L2 L12 L15 L18 L5 D5"/>
    </vehicle>

    <vehicle id="18" type="DEFAULT_VEHTYPE" depart="23.00" departLane="free" departSpeed="12.1981" fromTaz="taz91" toTaz="taz93" speedFactor="1.3132" arrival="492.00">
        <route edges="D2 L2 L12 L15 L18 L5 D5"/>
    </vehicle>

    <vehicle id="22" type="DEFAULT_VEHTYPE" depart="28.00" departLane="free" departSpeed="11.2221" fromTaz="taz91" toTaz="taz93" speedFactor="1.2004" arrival="492.00">
        <route edges="D2 L2 L12 L15 L18 L5 D5"/>
    </vehicle>

    <vehicle id="21" type="DEFAULT_VEHTYPE" depart="28.00" departLane="free" departSpeed="12.3802" fromTaz="taz91" toTaz="taz93" speedFactor="0.8913" arrival="494.00">
        <route edges="D2 L2 L12 L15 L18 L5 D5"/>
    </vehicle>

    <vehicle id="316" type="DEFAULT_VEHTYPE" depart="111.00" departLane="free" departSpeed="13.4481" fromTaz="taz92" toTaz="taz93" speedFactor="0.9682" arrival="496.00">
        <route edges="D4 L4 L14 L18 L5 D5"/>
    </vehicle>

    <vehicle id="24" type="DEFAULT_VEHTYPE" depart="30.00" departLane="free" departSpeed="11.6185" fromTaz="taz91" toTaz="taz93" speedFactor="0.8365" arrival="496.00">
        <route edges="D2 L2 L12 L15 L18 L5 D5"/>
    </vehicle>

    <vehicle id="23" type="DEFAULT_VEHTYPE" depart="29.00" departLane="free" departSpeed="11.4351" fromTaz="taz91" toTaz="taz93" speedFactor="0.9586" arrival="497.00">
        <route edges="D2 L2 L12 L15 L18 L5 D5"/>
    </vehicle>

    <vehicle id="26" type="DEFAULT_VEHTYPE" depart="33.00" departLane="free" departSpeed="12.332" fromTaz="taz91" toTaz="taz93" speedFactor="1.0593" arrival="497.00">
        <route edges="D2 L2 L12 L15 L18 L5 D5"/>
    </vehicle>

    <vehicle id="25" type="DEFAULT_VEHTYPE" depart="32.00" departLane="free" departSpeed="12.0846" fromTaz="taz91" toTaz="taz93" speedFactor="1.1780" arrival="498.00">
        <route edges="D2 L2 L12 L15 L18 L5 D5"/>
    </vehicle>

    <vehicle id="28" type="DEFAULT_VEHTYPE" depart="35.00" departLane="free" departSpeed="12.8584" fromTaz="taz91" toTaz="taz93" speedFactor="0.9705" arrival="498.00">
        <route edges="D2 L2 L12 L15 L18 L5 D5"/>
    </vehicle>

    <vehicle id="27" type="DEFAULT_VEHTYPE" depart="34.00" departLane="free" departSpeed="12.5897" fromTaz="taz91" toTaz="taz93" speedFactor="0.9445" arrival="499.00">
        <route edges="D2 L2 L12 L15 L18 L5 D5"/>
    </vehicle>

    <vehicle id="30" type="DEFAULT_VEHTYPE" depart="38.00" departLane="free" departSpeed="12.332" fromTaz="taz91" toTaz="taz93" speedFactor="1.0653" arrival="499.00">
        <route edges="D2 L2 L12 L15 L18 L5 D5"/>
    </vehicle>

    <vehicle id="33" type="DEFAULT_VEHTYPE" depart="42.00" departLane="free" departSpeed="11.8835" fromTaz="taz91" toTaz="taz93" speedFactor="1.1238" arrival="500.00">
        <route edges="D2 L2 L12 L15 L18 L5 D5"/>
    </vehicle>

    <vehicle id="29" type="DEFAULT_VEHTYPE" depart="37.00" departLane="free" departSpeed="12.0846" fromTaz="taz91" toTaz="taz93" speedFactor="1.0338" arrival="501.00">
        <route edges="D2 L2 L12 L15 L18 L5 D5"/>
    </vehicle>

    <vehicle id="35" type="DEFAULT_VEHTYPE" depart="44.00" departLane="free" departSpeed="12.3716" fromTaz="taz91" toTaz="taz93" speedFactor="1.0272" arrival="501.00">
        <route edges="D2 L2 L12 L15 L18 L5 D5"/>
    </vehicle>

    <vehicle id="31" type="DEFAULT_VEHTYPE" depart="39.00" departLane="free" departSpeed="12.5897" fromTaz="taz91" toTaz="taz93" speedFactor="1.0570" arrival="502.00">
        <route edges="D2 L2 L12 L15 L18 L5 D5"/>
    </vehicle>

    <vehicle id="32" type="DEFAULT_VEHTYPE" depart="40.00" departLane="free" departSpeed="11.4325" fromTaz="taz91" toTaz="taz93" speedFactor="0.8231" arrival="503.00">
        <route edges="D2 L2 L12 L15 L18 L5 D5"/>
    </vehicle>

    <vehicle id="34" type="DEFAULT_VEHTYPE" depart="43.00" departLane="free" departSpeed="12.1227" fromTaz="taz91" toTaz="taz93" speedFactor="1.1031" arrival="503.00">
        <route edges="D2 L2 L12 L15 L18 L5 D5"/>
    </vehicle>

    <vehicle id="430" type="DEFAULT_VEHTYPE" depart="12.00" departLane="free" departSpeed="10.0591" fromTaz="taz92" toTaz="taz94" speedFactor="0.7242" arrival="504.00">
        <route edges="D4 L4 L14 L16 L10 L7 D7"/>
    </vehicle>

    <vehicle id="317" type="DEFAULT_VEHTYPE" depart="123.00" departLane="free" departSpeed="11.0914" fromTaz="taz92" toTaz="taz93" speedFactor="1.1660" arrival="504.00">
        <route edges="D4 L4 L14 L18 L5 D5"/>
    </vehicle>

    <vehicle id="38" type="DEFAULT_VEHTYPE" depart="48.00" departLane="free" departSpeed="10.7654" fromTaz="taz91" toTaz="taz93" speedFactor="0.9353" arrival="504.00">
        <route edges="D2 L2 L12 L15 L18 L5 D5"/>
    </vehicle>

    <vehicle id="434" type="DEFAULT_VEHTYPE" depart="16.00" departLane="free" departSpeed="10.7793" fromTaz="taz92" toTaz="taz94" speedFactor="1.0054" arrival="505.00">
        <route edges="D4 L4 L14 L16 L10 L7 D7"/>
    </vehicle>

    <vehicle id="432" type="DEFAULT_VEHTYPE" depart="14.00" departLane="free" departSpeed="10.4069" fromTaz="taz92" toTaz="taz94" speedFactor="1.1831" arrival="506.00">
        <route edges="D4 L4 L14 L16 L10 L7 D7"/>
    </vehicle>

    <vehicle id="436" type="DEFAULT_VEHTYPE" depart="19.00" departLane="free" departSpeed="10.7805" fromTaz="taz92" toTaz="taz94" speedFactor="0.9772" arrival="506.00">
        <route edges="D4 L4 L14 L16 L10 L7 D7"/>
    </vehicle>

    <vehicle id="435" type="DEFAULT_VEHTYPE" depart="17.00" departLane="free" departSpeed="10.4078" fromTaz="taz92" toTaz="taz94" speedFactor="0.7493" arrival="507.00">
        <route edges="D4 L4 L14 L16 L10 L7 D7"/>
    </vehicle>

    <vehicle id="438" type="DEFAULT_VEHTYPE" depart="22.00" departLane="free" departSpeed="12.5881" fromTaz="taz92" toTaz="taz94" speedFactor="1.0350" arrival="508.00">
        <route edges="D4 L4 L14 L16 L10 L7 D7"/>
    </vehicle>

    <vehicle id="267" type="DEFAULT_VEHTYPE" depart="110.00" departLane="free" departSpeed="11.7523" fromTaz="taz91" toTaz="taz94" speedFactor="0.9362" arrival="508.00">
        <route edges="D2 L2 L12 L10 L7 D7"/>
    </vehicle>

    <vehicle id="437" type="DEFAULT_VEHTYPE" depart="20.00" departLane="free" departSpeed="10.9769" fromTaz="taz92" toTaz="taz94" speedFactor="1.0201" arrival="509.00">
        <route edges="D4 L4 L14 L16 L10 L7 D7"/>
    </vehicle>

    <vehicle id="440" type="DEFAULT_VEHTYPE" depart="24.00" departLane="free" departSpeed="13.1372" fromTaz="taz92" toTaz="taz94" speedFactor="1.1519" arrival="509.00">
        <route edges="D4 L4 L14 L16 L10 L7 D7"/>
    </vehicle>

    <vehicle id="439" type="DEFAULT_VEHTYPE" depart="23.00" departLane="free" departSpeed="12.8568" fromTaz="taz92" toTaz="taz94" speedFactor="1.0536" arrival="510.00">
        <route edges="D4 L4 L14 L16 L10 L7 D7"/>
    </vehicle>

    <vehicle id="442" type="DEFAULT_VEHTYPE" depart="26.00" departLane="free" departSpeed="13.6949" fromTaz="taz92" toTaz="taz94" speedFactor="0.9860" arrival="510.00">
        <route edges="D4 L4 L14 L16 L10 L7 D7"/>
    </vehicle>

    <vehicle id="268" type="DEFAULT_VEHTYPE" depart="115.00" departLane="free" departSpeed="12.1565" fromTaz="taz91" toTaz="taz94" speedFactor="0.8752" arrival="511.00">
        <route edges="D2 L2 L12 L10 L7 D7"/>
    </vehicle>

    <vehicle id="441" type="DEFAULT_VEHTYPE" depart="25.00" departLane="free" departSpeed="13.43" fromTaz="taz92" toTaz="taz94" speedFactor="1.1904" arrival="512.00">
        <route edges="D4 L4 L14 L16 L10 L7 D7"/>
    </vehicle>

    <vehicle id="444" type="DEFAULT_VEHTYPE" depart="28.00" departLane="free" departSpeed="14.3472" fromTaz="taz92" toTaz="taz94" speedFactor="1.1311" arrival="512.00">
        <route edges="D4 L4 L14 L16 L10 L7 D7"/>
    </vehicle>

    <vehicle id="443" type="DEFAULT_VEHTYPE" depart="27.00" departLane="free" departSpeed="14.0135" fromTaz="taz92" toTaz="taz94" speedFactor="1.0297" arrival="513.00">
        <route edges="D4 L4 L14 L16 L10 L7 D7"/>
    </vehicle>

    <vehicle id="269" type="DEFAULT_VEHTYPE" depart="120.00" departLane="free" departSpeed="13.1268" fromTaz="taz91" toTaz="taz94" speedFactor="1.0379" arrival="513.00">
        <route edges="D2 L2 L12 L10 L7 D7"/>
    </vehicle>

    <vehicle id="446" type="DEFAULT_VEHTYPE" depart="30.00" departLane="free" departSpeed="12.2384" fromTaz="taz92" toTaz="taz94" speedFactor="0.8811" arrival="515.00">
        <route edges="D4 L4 L14 L16 L10 L7 D7"/>
    </vehicle>

    <vehicle id="448" type="DEFAULT_VEHTYPE" depart="32.00" departLane="free" departSpeed="11.53" fromTaz="taz92" toTaz="taz94" speedFactor="1.0079" arrival="515.00">
        <route edges="D4 L4 L14 L16 L10 L7 D7"/>
    </vehicle>

    <vehicle id="445" type="DEFAULT_VEHTYPE" depart="29.00" departLane="free" departSpeed="14.59" fromTaz="taz92" toTaz="taz94" speedFactor="1.0504" arrival="516.00">
        <route edges="D4 L4 L14 L16 L10 L7 D7"/>
    </vehicle>

    <vehicle id="450" type="DEFAULT_VEHTYPE" depart="34.00" departLane="free" departSpeed="11.989" fromTaz="taz92" toTaz="taz94" speedFactor="0.8792" arrival="517.00">
        <route edges="D4 L4 L14 L16 L10 L7 D7"/>
    </vehicle>

    <vehicle id="447" type="DEFAULT_VEHTYPE" depart="30.00" departLane="free" departSpeed="11.1049" fromTaz="taz92" toTaz="taz94" speedFactor="0.8408" arrival="518.00">
        <route edges="D4 L4 L14 L16 L10 L7 D7"/>
    </vehicle>

    <vehicle id="452" type="DEFAULT_VEHTYPE" depart="35.00" departLane="free" departSpeed="11.10" fromTaz="taz92" toTaz="taz94" speedFactor="0.8477" arrival="519.00">
        <route edges="D4 L4 L14 L16 L10 L7 D7"/>
    </vehicle>

    <vehicle id="454" type="DEFAULT_VEHTYPE" depart="39.00" departLane="free" departSpeed="12.5607" fromTaz="taz92" toTaz="taz94" speedFactor="0.9043" arrival="519.00">
        <route edges="D4 L4 L14 L16 L10 L7 D7"/>
    </vehicle>

    <vehicle id="449" type="DEFAULT_VEHTYPE" depart="33.00" departLane="free" departSpeed="11.755" fromTaz="taz92" toTaz="taz94" speedFactor="0.9254" arrival="520.00">
        <route edges="D4 L4 L14 L16 L10 L7 D7"/>
    </vehicle>

    <vehicle id="451" type="DEFAULT_VEHTYPE" depart="35.00" departLane="free" departSpeed="12.2324" fromTaz="taz92" toTaz="taz94" speedFactor="1.1814" arrival="521.00">
        <route edges="D4 L4 L14 L16 L10 L7 D7"/>
    </vehicle>

    <vehicle id="456" type="DEFAULT_VEHTYPE" depart="40.00" departLane="free" departSpeed="11.5888" fromTaz="taz92" toTaz="taz94" speedFactor="1.1112" arrival="521.00">
        <route edges="D4 L4 L14 L16 L10 L7 D7"/>
    </vehicle>

    <vehicle id="458" type="DEFAULT_VEHTYPE" depart="42.00" departLane="free" departSpeed="12.0525" fromTaz="taz92" toTaz="taz94" speedFactor="0.9208" arrival="522.00">
        <route edges="D4 L4 L14 L16 L10 L7 D7"/>
    </vehicle>

    <vehicle id="270" type="DEFAULT_VEHTYPE" depart="125.00" departLane="free" departSpeed="11.5407" fromTaz="taz91" toTaz="taz94" speedFactor="0.8807" arrival="523.00">
        <route edges="D2 L2 L12 L10 L7 D7"/>
    </vehicle>

    <vehicle id="453" type="DEFAULT_VEHTYPE" depart="36.00" departLane="free" departSpeed="11.3084" fromTaz="taz92" toTaz="taz94" speedFactor="0.8645" arrival="524.00">
        <route edges="D4 L4 L14 L16 L10 L7 D7"/>
    </vehicle>

    <vehicle id="460" type="DEFAULT_VEHTYPE" depart="45.00" departLane="free" departSpeed="9.659" fromTaz="taz92" toTaz="taz94" speedFactor="1.2194" arrival="525.00">
        <route edges="D4 L4 L14 L16 L10 L7 D7"/>
    </vehicle>

    <vehicle id="271" type="DEFAULT_VEHTYPE" depart="129.00" departLane="free" departSpeed="11.3186" fromTaz="taz91" toTaz="taz94" speedFactor="1.0734" arrival="525.00">
        <route edges="D2 L2 L12 L10 L7 D7"/>
    </vehicle>

    <vehicle id="455" type="DEFAULT_VEHTYPE" depart="40.00" departLane="free" departSpeed="12.8287" fromTaz="taz92" toTaz="taz94" speedFactor="0.9275" arrival="526.00">
        <route edges="D4 L4 L14 L16 L10 L7 D7"/>
    </vehicle>

    <vehicle id="457" type="DEFAULT_VEHTYPE" depart="41.00" departLane="free" departSpeed="11.8161" fromTaz="taz92" toTaz="taz94" speedFactor="0.9522" arrival="527.00">
        <route edges="D4 L4 L14 L16 L10 L7 D7"/>
    </vehicle>

    <vehicle id="462" type="DEFAULT_VEHTYPE" depart="47.00" departLane="free" departSpeed="9.979" fromTaz="taz92" toTaz="taz94" speedFactor="0.9139" arrival="527.00">
        <route edges="D4 L4 L14 L16 L10 L7 D7"/>
    </vehicle>

    <vehicle id="459" type="DEFAULT_VEHTYPE" depart="43.00" departLane="free" departSpeed="12.2986" fromTaz="taz92" toTaz="taz94" speedFactor="1.0932" arrival="528.00">
        <route edges="D4 L4 L14 L16 L10 L7 D7"/>
    </vehicle>

    <vehicle id="272" type="DEFAULT_VEHTYPE" depart="135.00" departLane="free" departSpeed="12.6727" fromTaz="taz91" toTaz="taz94" speedFactor="0.9748" arrival="528.00">
        <route edges="D2 L2 L12 L10 L7 D7"/>
    </vehicle>

    <vehicle id="461" type="DEFAULT_VEHTYPE" depart="45.00" departLane="free" departSpeed="8.9389" fromTaz="taz92" toTaz="taz94" speedFactor="0.9461" arrival="529.00">
        <route edges="D4 L4 L14 L16 L10 L7 D7"/>
    </vehicle>

    <vehicle id="464" type="DEFAULT_VEHTYPE" depart="49.00" departLane="free" departSpeed="10.321" fromTaz="taz92" toTaz="taz94" speedFactor="0.9644" arrival="531.00">
        <route edges="D4 L4 L14 L16 L10 L7 D7"/>
    </vehicle>

    <vehicle id="273" type="DEFAULT_VEHTYPE" depart="139.00" departLane="free" departSpeed="11.9815" fromTaz="taz91" toTaz="taz94" speedFactor="0.8626" arrival="531.00">